 vasp.6.2.0 18Jan21 (build Jul 28 2023 11:58:00) complex                         
 executed on             LinuxGNU date 2025.02.13  07:58:26
 running on    2 total cores
 distrk:  each k-point on    2 cores,    1 groups
 distr:  one band on NCORE=   1 cores,    2 groups


--------------------------------------------------------------------------------------------------------


 INCAR:
   ENMAX = 500
   PREC = Accurate
   ALGO = Fast
   NELM = 100
   ISMEAR = 0
   SIGMA = 1E-2
   EDIFF = 1E-7
   EDIFFG = -1E-2
   NSW = 500
   IBRION = 1
   ISIF = 2
   IVDW = 12
   ISPIN = 2

 POTCAR:    PAW_PBE Mo 08Apr2002                  
 POTCAR:    PAW_PBE S 06Sep2000                   
 -----------------------------------------------------------------------------
|                                                                             |
|           W    W    AA    RRRRR   N    N  II  N    N   GGGG   !!!           |
|           W    W   A  A   R    R  NN   N  II  NN   N  G    G  !!!           |
|           W    W  A    A  R    R  N N  N  II  N N  N  G       !!!           |
|           W WW W  AAAAAA  RRRRR   N  N N  II  N  N N  G  GGG   !            |
|           WW  WW  A    A  R   R   N   NN  II  N   NN  G    G                |
|           W    W  A    A  R    R  N    N  II  N    N   GGGG   !!!           |
|                                                                             |
|     You use a magnetic or noncollinear calculation, but did not specify     |
|     the initial magnetic moment with the MAGMOM tag. Note that a            |
|     default of 1 will be used for all atoms. This ferromagnetic setup       |
|     may break the symmetry of the crystal, in particular it may rule        |
|     out finding an antiferromagnetic solution. Thence, we recommend         |
|     setting the initial magnetic moment manually or verifying carefully     |
|     that this magnetic setup is desired.                                    |
|                                                                             |
 -----------------------------------------------------------------------------

 POTCAR:    PAW_PBE Mo 08Apr2002                  
   SHA256 =  e91eef5e768b52c866a1a7e0829a38a041f11142f3595800aaf3206086d6c164 Mo/POTCAR             
   COPYR  = (c) Copyright 08Apr2002 Georg Kresse                                                    
   COPYR  = This file is part of the software VASP. Any use, copying, and all other rights are regul
   COPYR  = If you do not have a valid VASP license, you may not use, copy or distribute this file. 
   VRHFIN =Mo: 4p5s4d                                                                               
   LEXCH  = PE                                                                                      
   EATOM  =   217.5176 eV,   15.9871 Ry                                                             
                                                                                                    
   TITEL  = PAW_PBE Mo 08Apr2002                                                                    
   LULTRA =        F    use ultrasoft PP ?                                                          
   IUNSCR =        1    unscreen: 0-lin 1-nonlin 2-no                                               
   RPACOR =    2.200    partial core radius                                                         
   POMASS =   95.940; ZVAL   =    6.000    mass and valenz                                          
   RCORE  =    2.750    outmost cutoff radius                                                       
   RWIGS  =    2.750; RWIGS  =    1.455    wigner-seitz radius (au A)                               
   ENMAX  =  224.584; ENMIN  =  168.438 eV                                                          
   RCLOC  =    2.111    cutoff for local pot                                                        
   LCOR   =        T    correct aug charges                                                         
   LPAW   =        T    paw PP                                                                      
   EAUG   =  345.278                                                                                
   DEXC   =    0.000                                                                                
   RMAX   =    2.821    core radius for proj-oper                                                   
   RAUG   =    1.300    factor for augmentation sphere                                              
   RDEP   =    2.815    radius for radial grids                                                     
   RDEPT  =    2.211    core radius for aug-charge                                                  
                                                                                                    
   Atomic configuration                                                                             
   12 entries                                                                                       
     n  l   j            E        occ.                                                              
     1  0  0.50    -19819.0341   2.0000                                                             
     2  0  0.50     -2799.0127   2.0000                                                             
     2  1  1.50     -2502.0276   6.0000                                                             
     3  0  0.50      -476.4448   2.0000                                                             
     3  1  1.50      -379.1496   6.0000                                                             
     3  2  2.50      -220.9367  10.0000                                                             
     4  0  0.50       -64.3378   2.0000                                                             
     4  1  1.50       -38.4773   6.0000                                                             
     4  2  2.50        -3.7535   5.0000                                                             
     5  0  0.50        -4.0862   1.0000                                                             
     5  1  0.50        -2.7701   0.0000                                                             
     4  3  2.50        -1.3606   0.0000                                                             
   Description                                                                                      
     l       E           TYP  RCUT    TYP  RCUT                                                     
     2     -3.7534765     23  2.500                                                                 
     2     -5.1140591     23  2.500                                                                 
     0     -4.0861560     23  2.600                                                                 
     0     13.6058260     23  2.600                                                                 
     1      5.4423304     23  2.750                                                                 
     1     27.2116520     23  2.750                                                                 
  local pseudopotential read in
  partial core-charges read in
  partial kinetic energy density read in
  atomic valenz-charges read in
  non local Contribution for L=           2  read in
    real space projection operators read in
  non local Contribution for L=           2  read in
    real space projection operators read in
  non local Contribution for L=           0  read in
    real space projection operators read in
  non local Contribution for L=           0  read in
    real space projection operators read in
  non local Contribution for L=           1  read in
    real space projection operators read in
  non local Contribution for L=           1  read in
    real space projection operators read in
    PAW grid and wavefunctions read in

   number of l-projection  operators is LMAX  =           6
   number of lm-projection operators is LMMAX =          18

 POTCAR:    PAW_PBE S 06Sep2000                   
   SHA256 =  0fc7481fb0695f01bdc6462160264c5c84044ae9ec85a907d398b887a2bc3132 S/POTCAR              
   COPYR  = (c) Copyright 06Sep2000 Georg Kresse                                                    
   COPYR  = This file is part of the software VASP. Any use, copying, and all other rights are regul
   COPYR  = If you do not have a valid VASP license, you may not use, copy or distribute this file. 
   VRHFIN =S : s2p4                                                                                 
   LEXCH  = PE                                                                                      
   EATOM  =   276.8230 eV,   20.3459 Ry                                                             
                                                                                                    
   TITEL  = PAW_PBE S 06Sep2000                                                                     
   LULTRA =        F    use ultrasoft PP ?                                                          
   IUNSCR =        1    unscreen: 0-lin 1-nonlin 2-no                                               
   RPACOR =    1.500    partial core radius                                                         
   POMASS =   32.066; ZVAL   =    6.000    mass and valenz                                          
   RCORE  =    1.900    outmost cutoff radius                                                       
   RWIGS  =    2.200; RWIGS  =    1.164    wigner-seitz radius (au A)                               
   ENMAX  =  258.689; ENMIN  =  194.016 eV                                                          
   ICORE  =        2    local potential                                                             
   LCOR   =        T    correct aug charges                                                         
   LPAW   =        T    paw PP                                                                      
   EAUG   =  335.092                                                                                
   DEXC   =    0.000                                                                                
   RMAX   =    1.942    core radius for proj-oper                                                   
   RAUG   =    1.300    factor for augmentation sphere                                              
   RDEP   =    1.954    radius for radial grids                                                     
   RDEPT  =    1.744    core radius for aug-charge                                                  
                                                                                                    
   Atomic configuration                                                                             
    6 entries                                                                                       
     n  l   j            E        occ.                                                              
     1  0  0.50     -2405.8406   2.0000                                                             
     2  0  0.50      -211.7007   2.0000                                                             
     2  1  1.50      -156.4958   6.0000                                                             
     3  0  0.50       -17.2562   2.0000                                                             
     3  1  0.50        -7.0085   4.0000                                                             
     3  2  1.50        -6.8029   0.0000                                                             
   Description                                                                                      
     l       E           TYP  RCUT    TYP  RCUT                                                     
     0    -17.2561641     23  1.900                                                                 
     0    -15.8743224     23  1.900                                                                 
     1     -7.0085400     23  1.900                                                                 
     1     -2.7779785     23  1.900                                                                 
     2     -6.8029130     23  1.900                                                                 
  local pseudopotential read in
  partial core-charges read in
  partial kinetic energy density read in
  atomic valenz-charges read in
  non local Contribution for L=           0  read in
    real space projection operators read in
  non local Contribution for L=           0  read in
    real space projection operators read in
  non local Contribution for L=           1  read in
    real space projection operators read in
  non local Contribution for L=           1  read in
    real space projection operators read in
    PAW grid and wavefunctions read in

   number of l-projection  operators is LMAX  =           4
   number of lm-projection operators is LMMAX =           8

  PAW_PBE Mo 08Apr2002                  :
 energy of atom  1       EATOM= -217.5176
 kinetic energy error for atom=    0.0017 (will be added to EATOM!!)
  PAW_PBE S 06Sep2000                   :
 energy of atom  2       EATOM= -276.8230
 kinetic energy error for atom=    0.0020 (will be added to EATOM!!)


 POSCAR: Mo3 S6
  positions in direct lattice
  No initial velocities read in
 exchange correlation table for  LEXCH =        8
   RHO(1)=    0.500       N(1)  =     2000
   RHO(2)=  100.500       N(2)  =     4000



--------------------------------------------------------------------------------------------------------


 ion  position               nearest neighbor table
   1  0.667  0.333  0.333-   5 2.41   5 2.41   5 2.41   6 2.41   6 2.41   6 2.41
   2  0.333  0.667  0.666-   7 2.41   7 2.41   7 2.41   8 2.41   8 2.41   8 2.41
   3  0.000  0.000  1.000-   9 2.41   9 2.41   9 2.41   4 2.41   4 2.41   4 2.41
   4  0.333  0.667  0.080-   3 2.41   3 2.41   3 2.41
   5  0.000  0.000  0.253-   1 2.41   1 2.41   1 2.41
   6  0.000  0.000  0.413-   1 2.41   1 2.41   1 2.41
   7  0.667  0.333  0.587-   2 2.41   2 2.41   2 2.41
   8  0.667  0.333  0.746-   2 2.41   2 2.41   2 2.41
   9  0.333  0.667  0.920-   3 2.41   3 2.41   3 2.41

  LATTYP: Found a hexagonal cell.
 ALAT       =     3.1843038310
 C/A-ratio  =     6.1069220059
  
  Lattice vectors:
  
 A1 = (   1.5921519155,  -2.7576880110,   0.0000000000)
 A2 = (   1.5921519155,   2.7576880110,   0.0000000000)
 A3 = (   0.0000000000,   0.0000000000,  19.4462951388)


Analysis of symmetry for initial positions (statically):
=====================================================================
 Subroutine PRICEL returns following result:
 
  LATTYP: Found a trigonal (rhomboedric) cell.
 ALAT       =     6.7377688962
 COS(alpha) =     0.8883222176
  
  Lattice vectors:
  
 A1 = (   0.0000000000,  -1.8384586740,  -6.4820983796)
 A2 = (  -1.5921519155,   0.9192293370,  -6.4820983796)
 A3 = (   1.5921519155,   0.9192293370,  -6.4820983796)
 
   3 primitive cells build up your supercell.
 

 Routine SETGRP: Setting up the symmetry group for a 
 hexagonal supercell.


 Subroutine GETGRP returns: Found  6 space group operations
 (whereof  6 operations were pure point group operations)
 out of a pool of 24 trial point group operations.


The static configuration has the point symmetry C_3v.


Analysis of symmetry for dynamics (positions and initial velocities):
=====================================================================
 Subroutine PRICEL returns following result:
 
  LATTYP: Found a trigonal (rhomboedric) cell.
 ALAT       =     6.7377688962
 COS(alpha) =     0.8883222176
  
  Lattice vectors:
  
 A1 = (   0.0000000000,  -1.8384586740,  -6.4820983796)
 A2 = (  -1.5921519155,   0.9192293370,  -6.4820983796)
 A3 = (   1.5921519155,   0.9192293370,  -6.4820983796)
 
   3 primitive cells build up your supercell.
 

 Routine SETGRP: Setting up the symmetry group for a 
 hexagonal supercell.


 Subroutine GETGRP returns: Found  6 space group operations
 (whereof  6 operations were pure point group operations)
 out of a pool of 24 trial point group operations.


The dynamic configuration has the point symmetry C_3v.


Analysis of structural, dynamic, and magnetic symmetry:
=====================================================================
 Subroutine PRICEL returns following result:
 
  LATTYP: Found a trigonal (rhomboedric) cell.
 ALAT       =     6.7377688962
 COS(alpha) =     0.8883222176
  
  Lattice vectors:
  
 A1 = (   0.0000000000,  -1.8384586740,  -6.4820983796)
 A2 = (  -1.5921519155,   0.9192293370,  -6.4820983796)
 A3 = (   1.5921519155,   0.9192293370,  -6.4820983796)
 
   3 primitive cells build up your supercell.
 

 Routine SETGRP: Setting up the symmetry group for a 
 hexagonal supercell.


 Subroutine GETGRP returns: Found  6 space group operations
 (whereof  6 operations were pure point group operations)
 out of a pool of 24 trial point group operations.


The overall configuration has the point symmetry C_3v.


 Subroutine INISYM returns: Found  6 space group operations
 (whereof  6 operations are pure point group operations),
 and found     3 'primitive' translations


----------------------------------------------------------------------------------------

                                     Primitive cell                                     

  volume of cell :      56.9214

  direct lattice vectors                    reciprocal lattice vectors
     0.000000000 -1.838458674 -6.482098380    -0.000000000 -0.362622601 -0.051423677
    -1.592151915  0.919229337 -6.482098380    -0.314040385  0.181311301 -0.051423677
     1.592151915  0.919229337 -6.482098380     0.314040385  0.181311301 -0.051423677

  length of vectors
     6.737768896  6.737768896  6.737768896     0.366250659  0.366250659  0.366250659

  position of ions in fractional coordinates (direct lattice)
     0.000224960  0.000224960  0.000224960
     0.587069780  0.587069780  0.587069780
     0.746704260  0.746704260  0.746704260

  ion indices of the primitive-cell ions
   primitive index   ion index
                 1           1
                 2           8
                 3           7

----------------------------------------------------------------------------------------



 KPOINTS: Automatic generation                    

Automatic generation of k-mesh.
 Grid dimensions read from file:
 generate k-points for:    8    8    1

 Generating k-lattice:

  Cartesian coordinates                     Fractional coordinates (reciprocal lattice)
     0.039255048 -0.022663913  0.000000000     0.125000000 -0.000000000  0.000000000
     0.039255048  0.022663913 -0.000000000    -0.000000000  0.125000000  0.000000000
    -0.000000000  0.000000000  0.051423677     0.000000000  0.000000000  1.000000000

  Length of vectors
     0.045327825  0.045327825  0.051423677

  Shift w.r.t. Gamma in fractional coordinates (k-lattice)
     0.500000000  0.500000000  0.000000000

 
 Subroutine IBZKPT returns following result:
 ===========================================
 
 Found     20 irreducible k-points:
 
 Following reciprocal coordinates:
            Coordinates               Weight
  0.062500  0.062500  0.000000      6.000000
  0.187500  0.062500  0.000000     12.000000
  0.312500  0.062500  0.000000     12.000000
  0.437500  0.062500  0.000000     12.000000
 -0.437500  0.062500  0.000000     12.000000
 -0.312500  0.062500  0.000000     12.000000
 -0.187500  0.062500  0.000000     12.000000
 -0.062500  0.062500  0.000000      6.000000
  0.187500  0.187500  0.000000      6.000000
  0.312500  0.187500  0.000000     12.000000
  0.437500  0.187500  0.000000     12.000000
 -0.437500  0.187500  0.000000     12.000000
 -0.312500  0.187500  0.000000     12.000000
 -0.187500  0.187500  0.000000      6.000000
  0.312500  0.312500  0.000000      6.000000
  0.437500  0.312500  0.000000     12.000000
 -0.437500  0.312500  0.000000     12.000000
 -0.312500  0.312500  0.000000      6.000000
  0.437500  0.437500  0.000000      6.000000
 -0.437500  0.437500  0.000000      6.000000
 
 Following cartesian coordinates:
            Coordinates               Weight
  0.039255  0.000000  0.000000      6.000000
  0.078510 -0.022664  0.000000     12.000000
  0.117765 -0.045328  0.000000     12.000000
  0.157020 -0.067992  0.000000     12.000000
 -0.117765  0.090656  0.000000     12.000000
 -0.078510  0.067992  0.000000     12.000000
 -0.039255  0.045328  0.000000     12.000000
  0.000000  0.022664  0.000000      6.000000
  0.117765 -0.000000  0.000000      6.000000
  0.157020 -0.022664  0.000000     12.000000
  0.196275 -0.045328  0.000000     12.000000
 -0.078510  0.113320  0.000000     12.000000
 -0.039255  0.090656  0.000000     12.000000
  0.000000  0.067992  0.000000      6.000000
  0.196275 -0.000000  0.000000      6.000000
  0.235530 -0.022664  0.000000     12.000000
 -0.039255  0.135983  0.000000     12.000000
  0.000000  0.113320  0.000000      6.000000
  0.274785 -0.000000  0.000000      6.000000
  0.000000  0.158647  0.000000      6.000000
 


--------------------------------------------------------------------------------------------------------




 Dimension of arrays:
   k-points           NKPTS =     20   k-points in BZ     NKDIM =     20   number of bands    NBANDS=     38
   number of dos      NEDOS =    301   number of ions     NIONS =      9
   non local maximal  LDIM  =      6   non local SUM 2l+1 LMDIM =     18
   total plane-waves  NPLWV =  82944
   max r-space proj   IRMAX =      1   max aug-charges    IRDMAX=  31381
   dimension x,y,z NGX =    24 NGY =   24 NGZ =  144
   dimension x,y,z NGXF=    48 NGYF=   48 NGZF=  288
   support grid    NGXF=    48 NGYF=   48 NGZF=  288
   ions per type =               3   6
   NGX,Y,Z   is equivalent  to a cutoff of  12.53, 12.53, 12.31 a.u.
   NGXF,Y,Z  is equivalent  to a cutoff of  25.06, 25.06, 24.62 a.u.

 SYSTEM =  unknown system                          
 POSCAR =  Mo3 S6                                  

 Startparameter for this run:
   NWRITE =      2    write-flag & timer
   PREC   = accura    normal or accurate (medium, high low for compatibility)
   ISTART =      0    job   : 0-new  1-cont  2-samecut
   ICHARG =      2    charge: 1-file 2-atom 10-const
   ISPIN  =      2    spin polarized calculation?
   LNONCOLLINEAR =      F non collinear calculations
   LSORBIT =      F    spin-orbit coupling
   INIWAV =      1    electr: 0-lowe 1-rand  2-diag
   LASPH  =      F    aspherical Exc in radial PAW
   METAGGA=      F    non-selfconsistent MetaGGA calc.

 Electronic Relaxation 1
   ENCUT  =  500.0 eV  36.75 Ry    6.06 a.u.   5.81  5.81 35.46*2*pi/ulx,y,z
   ENINI  =  500.0     initial cutoff
   ENAUG  =  345.3 eV  augmentation charge cutoff
   NELM   =    100;   NELMIN=  2; NELMDL= -5     # of ELM steps 
   EDIFF  = 0.1E-06   stopping-criterion for ELM
   LREAL  =      F    real-space projection
   NLSPLINE    = F    spline interpolate recip. space projectors
   LCOMPAT=      F    compatible to vasp.4.4
   GGA_COMPAT  = T    GGA compatible to vasp.4.4-vasp.4.6
   LMAXPAW     = -100 max onsite density
   LMAXMIX     =    2 max onsite mixed and CHGCAR
   VOSKOWN=      0    Vosko Wilk Nusair interpolation
   ROPT   =    0.00000   0.00000
 Ionic relaxation
   EDIFFG = -.1E-01   stopping-criterion for IOM
   NSW    =    500    number of steps for IOM
   NBLOCK =      1;   KBLOCK =    500    inner block; outer block 
   IBRION =      1    ionic relax: 0-MD 1-quasi-New 2-CG
   NFREE  =      0    steps in history (QN), initial steepest desc. (CG)
   ISIF   =      2    stress and relaxation
   IWAVPR =     11    prediction:  0-non 1-charg 2-wave 3-comb
   ISYM   =      2    0-nonsym 1-usesym 2-fastsym
   LCORR  =      T    Harris-Foulkes like correction to forces

   POTIM  = 0.5000    time-step for ionic-motion
   TEIN   =    0.0    initial temperature
   TEBEG  =    0.0;   TEEND  =   0.0 temperature during run
   SMASS  =  -3.00    Nose mass-parameter (am)
   estimated Nose-frequenzy (Omega)   =  0.10E-29 period in steps = 0.13E+47 mass=  -0.232E-27a.u.
   SCALEE = 1.0000    scale energy and forces
   NPACO  =    256;   APACO  = 16.0  distance and # of slots for P.C.
   PSTRESS=    0.0 pullay stress

  Mass of Ions in am
   POMASS =  95.94 32.07
  Ionic Valenz
   ZVAL   =   6.00  6.00
  Atomic Wigner-Seitz radii
   RWIGS  =  -1.00 -1.00
  virtual crystal weights 
   VCA    =   1.00  1.00
   NELECT =      54.0000    total number of electrons
   NUPDOWN=      -1.0000    fix difference up-down

 DOS related values:
   EMIN   =  10.00;   EMAX   =-10.00  energy-range for DOS
   EFERMI =   0.00
   ISMEAR =     0;   SIGMA  =   0.01  broadening in eV -4-tet -1-fermi 0-gaus

 Electronic relaxation 2 (details)
   IALGO  =     68    algorithm
   LDIAG  =      T    sub-space diagonalisation (order eigenvalues)
   LSUBROT=      F    optimize rotation matrix (better conditioning)
   TURBO    =      0    0=normal 1=particle mesh
   IRESTART =      0    0=no restart 2=restart with 2 vectors
   NREBOOT  =      0    no. of reboots
   NMIN     =      0    reboot dimension
   EREF     =   0.00    reference energy to select bands
   IMIX   =      4    mixing-type and parameters
     AMIX     =   0.40;   BMIX     =  1.00
     AMIX_MAG =   1.60;   BMIX_MAG =  1.00
     AMIN     =   0.10
     WC   =   100.;   INIMIX=   1;  MIXPRE=   1;  MAXMIX= -45

 Intra band minimization:
   WEIMIN = 0.0010     energy-eigenvalue tresh-hold
   EBREAK =  0.66E-09  absolut break condition
   DEPER  =   0.30     relativ break condition  

   TIME   =   0.40     timestep for ELM

  volume/ion in A,a.u.               =      18.97       128.04
  Fermi-wavevector in a.u.,A,eV,Ry     =   1.115340  2.107687 16.925418  1.243983
  Thomas-Fermi vector in A             =   2.251944

 Write flags
   LWAVE        =      T    write WAVECAR
   LDOWNSAMPLE  =      F    k-point downsampling of WAVECAR
   LCHARG       =      T    write CHGCAR
   LVTOT        =      F    write LOCPOT, total local potential
   LVHAR        =      F    write LOCPOT, Hartree potential only
   LELF         =      F    write electronic localiz. function (ELF)
   LORBIT       =      0    0 simple, 1 ext, 2 COOP (PROOUT), +10 PAW based schemes


 Dipole corrections
   LMONO  =      F    monopole corrections only (constant potential shift)
   LDIPOL =      F    correct potential (dipole corrections)
   IDIPOL =      0    1-x, 2-y, 3-z, 4-all directions 
   EPSILON=  1.0000000 bulk dielectric constant

 Exchange correlation treatment:
   GGA     =    --    GGA type
   LEXCH   =     8    internal setting for exchange type
   VOSKOWN=      0    Vosko Wilk Nusair interpolation
   LHFCALC =     F    Hartree Fock is set to
   LHFONE  =     F    Hartree Fock one center treatment
   AEXX    =    0.0000 exact exchange contribution

 Linear response parameters
   LEPSILON=     F    determine dielectric tensor
   LRPA    =     F    only Hartree local field effects (RPA)
   LNABLA  =     F    use nabla operator in PAW spheres
   LVEL    =     F    velocity operator in full k-point grid
   LINTERFAST=   F  fast interpolation
   KINTER  =     0    interpolate to denser k-point grid
   CSHIFT  =0.1000    complex shift for real part using Kramers Kronig
   OMEGAMAX=  -1.0    maximum frequency
   DEG_THRESHOLD= 0.2000000E-02 threshold for treating states as degnerate
   RTIME   =   -0.100 relaxation time in fs
  (WPLASMAI=    0.000 imaginary part of plasma frequency in eV, 0.658/RTIME)
   DFIELD  = 0.0000000 0.0000000 0.0000000 field for delta impulse in time

 Orbital magnetization related:
   ORBITALMAG=     F  switch on orbital magnetization
   LCHIMAG   =     F  perturbation theory with respect to B field
   DQ        =  0.001000  dq finite difference perturbation B field
   LLRAUG    =     F  two centre corrections for induced B field



--------------------------------------------------------------------------------------------------------


 quasi-Newton-method for relaxation of ions
 charge density and potential will be updated during run
 spin polarized calculation
 RMM-DIIS sequential band-by-band and
  variant of blocked Davidson during initial phase
 perform sub-space diagonalisation
    before iterative eigenvector-optimisation
 modified Broyden-mixing scheme, WC =      100.0
 initial mixing is a Kerker type mixing with AMIX =  0.4000 and BMIX =      1.0000
 Hartree-type preconditioning will be used
 using additional bands           11
 reciprocal scheme for non local part
 use partial core corrections
 calculate Harris-corrections to forces   (improved forces if not selfconsistent)
 use gradient corrections 
 use of overlap-Matrix (Vanderbilt PP)
 Gauss-broadening in eV      SIGMA  =   0.01


--------------------------------------------------------------------------------------------------------


  energy-cutoff  :      500.00
  volume of cell :      170.76
      direct lattice vectors                 reciprocal lattice vectors
     1.592151915 -2.757688011  0.000000000     0.314040385 -0.181311301  0.000000000
     1.592151915  2.757688011  0.000000000     0.314040385  0.181311301 -0.000000000
     0.000000000  0.000000000 19.446295139    -0.000000000  0.000000000  0.051423677

  length of vectors
     3.184303831  3.184303831 19.446295139     0.362622601  0.362622601  0.051423677



 k-points in units of 2pi/SCALE and weight: Automatic generation                    
   0.03925505 -0.00000000  0.00000000       0.031
   0.07851010 -0.02266391  0.00000000       0.062
   0.11776514 -0.04532783  0.00000000       0.062
   0.15702019 -0.06799174  0.00000000       0.062
  -0.11776514  0.09065565  0.00000000       0.062
  -0.07851010  0.06799174  0.00000000       0.062
  -0.03925505  0.04532783  0.00000000       0.062
   0.00000000  0.02266391  0.00000000       0.031
   0.11776514  0.00000000  0.00000000       0.031
   0.15702019 -0.02266391  0.00000000       0.062
   0.19627524 -0.04532783  0.00000000       0.062
  -0.07851010  0.11331956  0.00000000       0.062
  -0.03925505  0.09065565  0.00000000       0.062
   0.00000000  0.06799174  0.00000000       0.031
   0.19627524  0.00000000  0.00000000       0.031
   0.23553029 -0.02266391  0.00000000       0.062
  -0.03925505  0.13598348  0.00000000       0.062
   0.00000000  0.11331956  0.00000000       0.031
   0.27478534  0.00000000  0.00000000       0.031
   0.00000000  0.15864739  0.00000000       0.031

 k-points in reciprocal lattice and weights: Automatic generation                    
   0.06250000  0.06250000  0.00000000       0.031
   0.18750000  0.06250000  0.00000000       0.062
   0.31250000  0.06250000  0.00000000       0.062
   0.43750000  0.06250000  0.00000000       0.062
  -0.43750000  0.06250000  0.00000000       0.062
  -0.31250000  0.06250000  0.00000000       0.062
  -0.18750000  0.06250000  0.00000000       0.062
  -0.06250000  0.06250000  0.00000000       0.031
   0.18750000  0.18750000  0.00000000       0.031
   0.31250000  0.18750000  0.00000000       0.062
   0.43750000  0.18750000  0.00000000       0.062
  -0.43750000  0.18750000  0.00000000       0.062
  -0.31250000  0.18750000  0.00000000       0.062
  -0.18750000  0.18750000  0.00000000       0.031
   0.31250000  0.31250000  0.00000000       0.031
   0.43750000  0.31250000  0.00000000       0.062
  -0.43750000  0.31250000  0.00000000       0.062
  -0.31250000  0.31250000  0.00000000       0.031
   0.43750000  0.43750000  0.00000000       0.031
  -0.43750000  0.43750000  0.00000000       0.031

 position of ions in fractional coordinates (direct lattice) 
   0.66666667  0.33333333  0.33310837
   0.33333333  0.66666667  0.66644171
   0.00000000  0.00000000  0.99977504
   0.33333333  0.66666667  0.07959689
   0.00000000  0.00000000  0.25329574
   0.00000000  0.00000000  0.41293022
   0.66666667  0.33333333  0.58662907
   0.66666667  0.33333333  0.74626355
   0.33333333  0.66666667  0.91996241

 position of ions in cartesian coordinates  (Angst):
   1.59215192 -0.91922934  6.47772374
   1.59215192  0.91922934 12.95982212
   0.00000000  0.00000000 19.44192050
   1.59215192  0.91922934  1.54786455
   0.00000000  0.00000000  4.92566372
   0.00000000  0.00000000  8.02996293
   1.59215192 -0.91922934 11.40776210
   1.59215192 -0.91922934 14.51206131
   1.59215192  0.91922934 17.88986048



--------------------------------------------------------------------------------------------------------


 k-point   1 :   0.0625 0.0625 0.0000  plane waves:    4309
 k-point   2 :   0.1875 0.0625 0.0000  plane waves:    4321
 k-point   3 :   0.3125 0.0625 0.0000  plane waves:    4359
 k-point   4 :   0.4375 0.0625 0.0000  plane waves:    4342
 k-point   5 :  -0.4375 0.0625 0.0000  plane waves:    4361
 k-point   6 :  -0.3125 0.0625 0.0000  plane waves:    4331
 k-point   7 :  -0.1875 0.0625 0.0000  plane waves:    4308
 k-point   8 :  -0.0625 0.0625 0.0000  plane waves:    4314
 k-point   9 :   0.1875 0.1875 0.0000  plane waves:    4330
 k-point  10 :   0.3125 0.1875 0.0000  plane waves:    4345
 k-point  11 :   0.4375 0.1875 0.0000  plane waves:    4326
 k-point  12 :  -0.4375 0.1875 0.0000  plane waves:    4343
 k-point  13 :  -0.3125 0.1875 0.0000  plane waves:    4320
 k-point  14 :  -0.1875 0.1875 0.0000  plane waves:    4306
 k-point  15 :   0.3125 0.3125 0.0000  plane waves:    4336
 k-point  16 :   0.4375 0.3125 0.0000  plane waves:    4325
 k-point  17 :  -0.4375 0.3125 0.0000  plane waves:    4349
 k-point  18 :  -0.3125 0.3125 0.0000  plane waves:    4338
 k-point  19 :   0.4375 0.4375 0.0000  plane waves:    4334
 k-point  20 :  -0.4375 0.4375 0.0000  plane waves:    4368

 maximum and minimum number of plane-waves per node :      4368     4306

 maximum number of plane-waves:      4368
 maximum index in each direction: 
   IXMAX=    6   IYMAX=    5   IZMAX=   35
   IXMIN=   -6   IYMIN=   -6   IZMIN=  -35


 serial   3D FFT for wavefunctions
 parallel 3D FFT for charge:
    minimum data exchange during FFTs selected (reduces bandwidth)


 total amount of memory used by VASP MPI-rank0   155293. kBytes
=======================================================================

   base      :      30000. kBytes
   nonl-proj :      25788. kBytes
   fftplans  :      11528. kBytes
   grid      :      33343. kBytes
   one-center:        279. kBytes
   wavefun   :      54355. kBytes

     INWAV:  cpu time    0.0001: real time    0.0017
 Broyden mixing: mesh for mixing (old mesh)
   NGX = 11   NGY = 11   NGZ = 71
  (NGX  = 48   NGY  = 48   NGZ  =288)
  gives a total of   8591 points

 initial charge density was supplied:
 charge density of overlapping atoms calculated
 number of electron      54.0000000 magnetization       9.0000000
 keeping initial charge density in first step


--------------------------------------------------------------------------------------------------------


 Maximum index for augmentation-charges        15133 (set IRDMAX)


--------------------------------------------------------------------------------------------------------


 First call to EWALD:  gamma=   0.319
 Maximum number of real-space cells 5x 5x 1
 Maximum number of reciprocal cells 2x 2x 8

    FEWALD:  cpu time    0.0007: real time    0.0007


--------------------------------------- Iteration      1(   1)  ---------------------------------------


    POTLOK:  cpu time    0.3327: real time    0.3344
    SETDIJ:  cpu time    0.0333: real time    0.0334
     EDDAV:  cpu time    5.1824: real time    5.2334
       DOS:  cpu time    0.0015: real time    0.0015
    --------------------------------------------
      LOOP:  cpu time    5.5499: real time    5.6028

 eigenvalue-minimisations  :  3056
 total energy-change (2. order) : 0.2902328E+03  (-0.2299078E+04)
 number of electron      54.0000000 magnetization       9.0000000
 augmentation part       54.0000000 magnetization       9.0000000

 Free energy of the ion-electron system (eV)
  ---------------------------------------------------
  alpha Z        PSCENC =       156.26454146
  Ewald energy   TEWEN  =     -2181.61153230
  -Hartree energ DENC   =      -438.70924927
  -exchange      EXHF   =         0.00000000
  -V(xc)+E(xc)   XCENC  =      -107.58008722
  PAW double counting   =      2100.93528082    -1868.23984205
  entropy T*S    EENTRO =        -0.00017920
  eigenvalues    EBANDS =       315.69997117
  atomic energy  EATOM  =      2313.47388723
  Solvation  Ediel_sol  =         0.00000000
  ---------------------------------------------------
  free energy    TOTEN  =       290.23279065 eV

  energy without entropy =      290.23296985  energy(sigma->0) =      290.23288025


--------------------------------------------------------------------------------------------------------




--------------------------------------- Iteration      1(   2)  ---------------------------------------


     EDDAV:  cpu time    6.1790: real time    6.2400
       DOS:  cpu time    0.0004: real time    0.0004
    --------------------------------------------
      LOOP:  cpu time    6.1794: real time    6.2404

 eigenvalue-minimisations  :  3902
 total energy-change (2. order) :-0.3325917E+03  (-0.3164951E+03)
 number of electron      54.0000000 magnetization       9.0000000
 augmentation part       54.0000000 magnetization       9.0000000

 Free energy of the ion-electron system (eV)
  ---------------------------------------------------
  alpha Z        PSCENC =       156.26454146
  Ewald energy   TEWEN  =     -2181.61153230
  -Hartree energ DENC   =      -438.70924927
  -exchange      EXHF   =         0.00000000
  -V(xc)+E(xc)   XCENC  =      -107.58008722
  PAW double counting   =      2100.93528082    -1868.23984205
  entropy T*S    EENTRO =        -0.00000000
  eigenvalues    EBANDS =       -16.89186777
  atomic energy  EATOM  =      2313.47388723
  Solvation  Ediel_sol  =         0.00000000
  ---------------------------------------------------
  free energy    TOTEN  =       -42.35886909 eV

  energy without entropy =      -42.35886909  energy(sigma->0) =      -42.35886909


--------------------------------------------------------------------------------------------------------




--------------------------------------- Iteration      1(   3)  ---------------------------------------


     EDDAV:  cpu time    5.8640: real time    5.9214
       DOS:  cpu time    0.0004: real time    0.0004
    --------------------------------------------
      LOOP:  cpu time    5.8644: real time    5.9218

 eigenvalue-minimisations  :  3644
 total energy-change (2. order) :-0.2507175E+02  (-0.2466714E+02)
 number of electron      54.0000000 magnetization       9.0000000
 augmentation part       54.0000000 magnetization       9.0000000

 Free energy of the ion-electron system (eV)
  ---------------------------------------------------
  alpha Z        PSCENC =       156.26454146
  Ewald energy   TEWEN  =     -2181.61153230
  -Hartree energ DENC   =      -438.70924927
  -exchange      EXHF   =         0.00000000
  -V(xc)+E(xc)   XCENC  =      -107.58008722
  PAW double counting   =      2100.93528082    -1868.23984205
  entropy T*S    EENTRO =        -0.00000000
  eigenvalues    EBANDS =       -41.96362175
  atomic energy  EATOM  =      2313.47388723
  Solvation  Ediel_sol  =         0.00000000
  ---------------------------------------------------
  free energy    TOTEN  =       -67.43062308 eV

  energy without entropy =      -67.43062308  energy(sigma->0) =      -67.43062308


--------------------------------------------------------------------------------------------------------




--------------------------------------- Iteration      1(   4)  ---------------------------------------


     EDDAV:  cpu time    6.4512: real time    6.5120
       DOS:  cpu time    0.0004: real time    0.0004
    --------------------------------------------
      LOOP:  cpu time    6.4516: real time    6.5124

 eigenvalue-minimisations  :  4144
 total energy-change (2. order) :-0.6590842E+00  (-0.6558937E+00)
 number of electron      54.0000000 magnetization       9.0000000
 augmentation part       54.0000000 magnetization       9.0000000

 Free energy of the ion-electron system (eV)
  ---------------------------------------------------
  alpha Z        PSCENC =       156.26454146
  Ewald energy   TEWEN  =     -2181.61153230
  -Hartree energ DENC   =      -438.70924927
  -exchange      EXHF   =         0.00000000
  -V(xc)+E(xc)   XCENC  =      -107.58008722
  PAW double counting   =      2100.93528082    -1868.23984205
  entropy T*S    EENTRO =        -0.00000000
  eigenvalues    EBANDS =       -42.62270590
  atomic energy  EATOM  =      2313.47388723
  Solvation  Ediel_sol  =         0.00000000
  ---------------------------------------------------
  free energy    TOTEN  =       -68.08970723 eV

  energy without entropy =      -68.08970723  energy(sigma->0) =      -68.08970723


--------------------------------------------------------------------------------------------------------




--------------------------------------- Iteration      1(   5)  ---------------------------------------


     EDDAV:  cpu time    6.1198: real time    6.1805
       DOS:  cpu time    0.0004: real time    0.0004
    CHARGE:  cpu time    0.5035: real time    0.5056
    MIXING:  cpu time    0.0030: real time    0.0030
    --------------------------------------------
      LOOP:  cpu time    6.6267: real time    6.6895

 eigenvalue-minimisations  :  3854
 total energy-change (2. order) :-0.1550461E-01  (-0.1549836E-01)
 number of electron      54.0000000 magnetization       7.6387952
 augmentation part       -2.8114821 magnetization       7.5553970

 Broyden mixing:
  rms(total) = 0.44177E+01    rms(broyden)= 0.44177E+01
  rms(prec ) = 0.44686E+01
  weight for this iteration     100.00

 Free energy of the ion-electron system (eV)
  ---------------------------------------------------
  alpha Z        PSCENC =       156.26454146
  Ewald energy   TEWEN  =     -2181.61153230
  -Hartree energ DENC   =      -438.70924927
  -exchange      EXHF   =         0.00000000
  -V(xc)+E(xc)   XCENC  =      -107.58008722
  PAW double counting   =      2100.93528082    -1868.23984205
  entropy T*S    EENTRO =        -0.00000000
  eigenvalues    EBANDS =       -42.63821051
  atomic energy  EATOM  =      2313.47388723
  Solvation  Ediel_sol  =         0.00000000
  ---------------------------------------------------
  free energy    TOTEN  =       -68.10521184 eV

  energy without entropy =      -68.10521184  energy(sigma->0) =      -68.10521184


--------------------------------------------------------------------------------------------------------




--------------------------------------- Iteration      1(   6)  ---------------------------------------


    POTLOK:  cpu time    0.3129: real time    0.3186
    SETDIJ:  cpu time    0.0331: real time    0.0333
    EDDIAG:  cpu time    1.3223: real time    1.3375
  RMM-DIIS:  cpu time    4.1365: real time    4.1555
    ORTHCH:  cpu time    0.0713: real time    0.0745
       DOS:  cpu time    0.0004: real time    0.0004
    CHARGE:  cpu time    0.4939: real time    0.4963
    MIXING:  cpu time    0.0031: real time    0.0031
    --------------------------------------------
      LOOP:  cpu time    6.3736: real time    6.4193

 eigenvalue-minimisations  :  3070
 total energy-change (2. order) : 0.9897190E+01  (-0.3002676E+01)
 number of electron      54.0000001 magnetization       6.2179720
 augmentation part       -1.3446458 magnetization       6.2159564

 Broyden mixing:
  rms(total) = 0.16347E+01    rms(broyden)= 0.16347E+01
  rms(prec ) = 0.16763E+01
  weight for this iteration     100.00

 eigenvalues of (default mixing * dielectric matrix)
  average eigenvalue GAMMA=   1.2343
  1.2343

 Free energy of the ion-electron system (eV)
  ---------------------------------------------------
  alpha Z        PSCENC =       156.26454146
  Ewald energy   TEWEN  =     -2181.61153230
  -Hartree energ DENC   =      -436.63507715
  -exchange      EXHF   =         0.00000000
  -V(xc)+E(xc)   XCENC  =      -102.34069299
  PAW double counting   =      3010.38885395    -2780.44936189
  entropy T*S    EENTRO =        -0.00000000
  eigenvalues    EBANDS =       -37.29864023
  atomic energy  EATOM  =      2313.47388723
  Solvation  Ediel_sol  =         0.00000000
  ---------------------------------------------------
  free energy    TOTEN  =       -58.20802191 eV

  energy without entropy =      -58.20802191  energy(sigma->0) =      -58.20802191


--------------------------------------------------------------------------------------------------------




--------------------------------------- Iteration      1(   7)  ---------------------------------------


    POTLOK:  cpu time    0.3138: real time    0.3184
    SETDIJ:  cpu time    0.0332: real time    0.0335
    EDDIAG:  cpu time    1.3215: real time    1.3341
  RMM-DIIS:  cpu time    4.1612: real time    4.1786
    ORTHCH:  cpu time    0.0710: real time    0.0742
       DOS:  cpu time    0.0004: real time    0.0004
    CHARGE:  cpu time    0.4966: real time    0.4988
    MIXING:  cpu time    0.0033: real time    0.0033
    --------------------------------------------
      LOOP:  cpu time    6.4010: real time    6.4413

 eigenvalue-minimisations  :  3041
 total energy-change (2. order) : 0.1138540E+01  (-0.5835716E+00)
 number of electron      54.0000000 magnetization       4.3983325
 augmentation part       -2.0482409 magnetization       4.3896805

 Broyden mixing:
  rms(total) = 0.12170E+01    rms(broyden)= 0.12170E+01
  rms(prec ) = 0.12335E+01
  weight for this iteration     100.00

 eigenvalues of (default mixing * dielectric matrix)
  average eigenvalue GAMMA=   1.4548
  0.7354  2.1742

 Free energy of the ion-electron system (eV)
  ---------------------------------------------------
  alpha Z        PSCENC =       156.26454146
  Ewald energy   TEWEN  =     -2181.61153230
  -Hartree energ DENC   =      -449.91334739
  -exchange      EXHF   =         0.00000000
  -V(xc)+E(xc)   XCENC  =      -102.25977832
  PAW double counting   =      3865.46294996    -3636.78510855
  entropy T*S    EENTRO =        -0.00000000
  eigenvalues    EBANDS =       -21.70109360
  atomic energy  EATOM  =      2313.47388723
  Solvation  Ediel_sol  =         0.00000000
  ---------------------------------------------------
  free energy    TOTEN  =       -57.06948152 eV

  energy without entropy =      -57.06948152  energy(sigma->0) =      -57.06948152


--------------------------------------------------------------------------------------------------------




--------------------------------------- Iteration      1(   8)  ---------------------------------------


    POTLOK:  cpu time    0.3137: real time    0.3190
    SETDIJ:  cpu time    0.0331: real time    0.0332
    EDDIAG:  cpu time    1.3155: real time    1.3279
  RMM-DIIS:  cpu time    4.2232: real time    4.2416
    ORTHCH:  cpu time    0.0730: real time    0.0763
       DOS:  cpu time    0.0004: real time    0.0004
    CHARGE:  cpu time    0.4947: real time    0.4968
    MIXING:  cpu time    0.0032: real time    0.0032
    --------------------------------------------
      LOOP:  cpu time    6.4568: real time    6.4984

 eigenvalue-minimisations  :  3070
 total energy-change (2. order) :-0.2409374E+00  (-0.3154550E+00)
 number of electron      54.0000001 magnetization       3.8156316
 augmentation part       -1.6550847 magnetization       3.7897585

 Broyden mixing:
  rms(total) = 0.46452E+00    rms(broyden)= 0.46452E+00
  rms(prec ) = 0.46695E+00
  weight for this iteration     100.00

 eigenvalues of (default mixing * dielectric matrix)
  average eigenvalue GAMMA=   1.2482
  2.3270  0.8785  0.5391

 Free energy of the ion-electron system (eV)
  ---------------------------------------------------
  alpha Z        PSCENC =       156.26454146
  Ewald energy   TEWEN  =     -2181.61153230
  -Hartree energ DENC   =      -457.60919124
  -exchange      EXHF   =         0.00000000
  -V(xc)+E(xc)   XCENC  =      -101.15723648
  PAW double counting   =      4853.97489372    -4626.76488118
  entropy T*S    EENTRO =        -0.00000000
  eigenvalues    EBANDS =       -13.88090018
  atomic energy  EATOM  =      2313.47388723
  Solvation  Ediel_sol  =         0.00000000
  ---------------------------------------------------
  free energy    TOTEN  =       -57.31041897 eV

  energy without entropy =      -57.31041897  energy(sigma->0) =      -57.31041897


--------------------------------------------------------------------------------------------------------




--------------------------------------- Iteration      1(   9)  ---------------------------------------


    POTLOK:  cpu time    0.3121: real time    0.3159
    SETDIJ:  cpu time    0.0329: real time    0.0330
    EDDIAG:  cpu time    1.3208: real time    1.3331
  RMM-DIIS:  cpu time    4.2756: real time    4.2937
    ORTHCH:  cpu time    0.0734: real time    0.0767
       DOS:  cpu time    0.0004: real time    0.0004
    CHARGE:  cpu time    0.4963: real time    0.4985
    MIXING:  cpu time    0.0034: real time    0.0035
    --------------------------------------------
      LOOP:  cpu time    6.5150: real time    6.5547

 eigenvalue-minimisations  :  3079
 total energy-change (2. order) :-0.1560214E+01  (-0.6910063E-01)
 number of electron      54.0000001 magnetization       2.5630375
 augmentation part       -1.6348922 magnetization       2.5336343

 Broyden mixing:
  rms(total) = 0.33266E+00    rms(broyden)= 0.33266E+00
  rms(prec ) = 0.33508E+00
  weight for this iteration     100.00

 eigenvalues of (default mixing * dielectric matrix)
  average eigenvalue GAMMA=   1.2877
  2.3142  1.5803  0.5646  0.6919

 Free energy of the ion-electron system (eV)
  ---------------------------------------------------
  alpha Z        PSCENC =       156.26454146
  Ewald energy   TEWEN  =     -2181.61153230
  -Hartree energ DENC   =      -457.65085378
  -exchange      EXHF   =         0.00000000
  -V(xc)+E(xc)   XCENC  =      -101.92487793
  PAW double counting   =      4882.38875621    -4655.23992387
  entropy T*S    EENTRO =        -0.00000000
  eigenvalues    EBANDS =       -14.57062991
  atomic energy  EATOM  =      2313.47388723
  Solvation  Ediel_sol  =         0.00000000
  ---------------------------------------------------
  free energy    TOTEN  =       -58.87063290 eV

  energy without entropy =      -58.87063290  energy(sigma->0) =      -58.87063290


--------------------------------------------------------------------------------------------------------




--------------------------------------- Iteration      1(  10)  ---------------------------------------


    POTLOK:  cpu time    0.3139: real time    0.3190
    SETDIJ:  cpu time    0.0328: real time    0.0330
    EDDIAG:  cpu time    1.3199: real time    1.3324
  RMM-DIIS:  cpu time    4.5009: real time    4.5200
    ORTHCH:  cpu time    0.0728: real time    0.0761
       DOS:  cpu time    0.0004: real time    0.0004
    CHARGE:  cpu time    0.4935: real time    0.4959
    MIXING:  cpu time    0.0034: real time    0.0034
    --------------------------------------------
      LOOP:  cpu time    6.7375: real time    6.7801

 eigenvalue-minimisations  :  3323
 total energy-change (2. order) :-0.2929411E+01  (-0.1913255E+00)
 number of electron      54.0000001 magnetization       1.8976946
 augmentation part       -1.6715477 magnetization       1.8770187

 Broyden mixing:
  rms(total) = 0.22559E+00    rms(broyden)= 0.22559E+00
  rms(prec ) = 0.22727E+00
  weight for this iteration     100.00

 eigenvalues of (default mixing * dielectric matrix)
  average eigenvalue GAMMA=   1.2137
  2.4935  1.6832  0.6837  0.6837  0.5241

 Free energy of the ion-electron system (eV)
  ---------------------------------------------------
  alpha Z        PSCENC =       156.26454146
  Ewald energy   TEWEN  =     -2181.61153230
  -Hartree energ DENC   =      -457.39623268
  -exchange      EXHF   =         0.00000000
  -V(xc)+E(xc)   XCENC  =      -103.34632659
  PAW double counting   =      5002.79168167    -4775.71849510
  entropy T*S    EENTRO =        -0.00000000
  eigenvalues    EBANDS =       -16.25756760
  atomic energy  EATOM  =      2313.47388723
  Solvation  Ediel_sol  =         0.00000000
  ---------------------------------------------------
  free energy    TOTEN  =       -61.80004392 eV

  energy without entropy =      -61.80004392  energy(sigma->0) =      -61.80004392


--------------------------------------------------------------------------------------------------------




--------------------------------------- Iteration      1(  11)  ---------------------------------------


    POTLOK:  cpu time    0.3133: real time    0.3151
    SETDIJ:  cpu time    0.0327: real time    0.0329
    EDDIAG:  cpu time    1.2961: real time    1.3088
  RMM-DIIS:  cpu time    4.6190: real time    4.6383
    ORTHCH:  cpu time    0.0717: real time    0.0750
       DOS:  cpu time    0.0004: real time    0.0004
    CHARGE:  cpu time    0.4999: real time    0.5019
    MIXING:  cpu time    0.0035: real time    0.0035
    --------------------------------------------
      LOOP:  cpu time    6.8366: real time    6.8759

 eigenvalue-minimisations  :  3408
 total energy-change (2. order) :-0.1615348E+01  (-0.1500358E+00)
 number of electron      54.0000001 magnetization       1.3011059
 augmentation part       -1.6670820 magnetization       1.2880950

 Broyden mixing:
  rms(total) = 0.17638E+00    rms(broyden)= 0.17638E+00
  rms(prec ) = 0.18078E+00
  weight for this iteration     100.00

 eigenvalues of (default mixing * dielectric matrix)
  average eigenvalue GAMMA=   1.3121
  2.7567  2.0735  0.8466  0.8466  0.5811  0.7679

 Free energy of the ion-electron system (eV)
  ---------------------------------------------------
  alpha Z        PSCENC =       156.26454146
  Ewald energy   TEWEN  =     -2181.61153230
  -Hartree energ DENC   =      -456.00538435
  -exchange      EXHF   =         0.00000000
  -V(xc)+E(xc)   XCENC  =      -103.93335366
  PAW double counting   =      5056.63398497    -4829.56223577
  entropy T*S    EENTRO =        -0.00000000
  eigenvalues    EBANDS =       -18.67529900
  atomic energy  EATOM  =      2313.47388723
  Solvation  Ediel_sol  =         0.00000000
  ---------------------------------------------------
  free energy    TOTEN  =       -63.41539143 eV

  energy without entropy =      -63.41539143  energy(sigma->0) =      -63.41539143


--------------------------------------------------------------------------------------------------------




--------------------------------------- Iteration      1(  12)  ---------------------------------------


    POTLOK:  cpu time    0.3121: real time    0.3175
    SETDIJ:  cpu time    0.0326: real time    0.0329
    EDDIAG:  cpu time    1.3008: real time    1.3130
  RMM-DIIS:  cpu time    4.8607: real time    4.8810
    ORTHCH:  cpu time    0.0732: real time    0.0765
       DOS:  cpu time    0.0004: real time    0.0004
    CHARGE:  cpu time    0.5023: real time    0.5043
    MIXING:  cpu time    0.0038: real time    0.0038
    --------------------------------------------
      LOOP:  cpu time    7.0860: real time    7.1295

 eigenvalue-minimisations  :  3587
 total energy-change (2. order) :-0.1402414E+01  (-0.1966622E+00)
 number of electron      54.0000001 magnetization       0.4359943
 augmentation part       -1.6536002 magnetization       0.4248792

 Broyden mixing:
  rms(total) = 0.13221E+00    rms(broyden)= 0.13221E+00
  rms(prec ) = 0.13795E+00
  weight for this iteration     100.00

 eigenvalues of (default mixing * dielectric matrix)
  average eigenvalue GAMMA=   1.6456
  3.4485  3.4485  1.5887  1.0831  0.7456  0.6025  0.6025

 Free energy of the ion-electron system (eV)
  ---------------------------------------------------
  alpha Z        PSCENC =       156.26454146
  Ewald energy   TEWEN  =     -2181.61153230
  -Hartree energ DENC   =      -452.42917563
  -exchange      EXHF   =         0.00000000
  -V(xc)+E(xc)   XCENC  =      -104.49542950
  PAW double counting   =      5020.71698991    -4793.52822885
  entropy T*S    EENTRO =        -0.00000000
  eigenvalues    EBANDS =       -23.20885768
  atomic energy  EATOM  =      2313.47388723
  Solvation  Ediel_sol  =         0.00000000
  ---------------------------------------------------
  free energy    TOTEN  =       -64.81780536 eV

  energy without entropy =      -64.81780536  energy(sigma->0) =      -64.81780536


--------------------------------------------------------------------------------------------------------




--------------------------------------- Iteration      1(  13)  ---------------------------------------


    POTLOK:  cpu time    0.3130: real time    0.3194
    SETDIJ:  cpu time    0.0327: real time    0.0328
    EDDIAG:  cpu time    1.2975: real time    1.3108
  RMM-DIIS:  cpu time    4.7133: real time    4.7326
    ORTHCH:  cpu time    0.0718: real time    0.0751
       DOS:  cpu time    0.0004: real time    0.0004
    CHARGE:  cpu time    0.5010: real time    0.5030
    MIXING:  cpu time    0.0037: real time    0.0038
    --------------------------------------------
      LOOP:  cpu time    6.9333: real time    6.9779

 eigenvalue-minimisations  :  3495
 total energy-change (2. order) :-0.5235582E+00  (-0.1174984E+00)
 number of electron      54.0000001 magnetization       0.2326970
 augmentation part       -1.6316105 magnetization       0.2272129

 Broyden mixing:
  rms(total) = 0.12503E+00    rms(broyden)= 0.12503E+00
  rms(prec ) = 0.12802E+00
  weight for this iteration     100.00

 eigenvalues of (default mixing * dielectric matrix)
  average eigenvalue GAMMA=   1.5834
  4.8153  2.3298  1.7535  0.9437  0.9437  0.7226  0.5794  0.5794

 Free energy of the ion-electron system (eV)
  ---------------------------------------------------
  alpha Z        PSCENC =       156.26454146
  Ewald energy   TEWEN  =     -2181.61153230
  -Hartree energ DENC   =      -443.37880975
  -exchange      EXHF   =         0.00000000
  -V(xc)+E(xc)   XCENC  =      -105.20990800
  PAW double counting   =      4858.97807273    -4631.51741613
  entropy T*S    EENTRO =        -0.00000000
  eigenvalues    EBANDS =       -32.34019879
  atomic energy  EATOM  =      2313.47388723
  Solvation  Ediel_sol  =         0.00000000
  ---------------------------------------------------
  free energy    TOTEN  =       -65.34136355 eV

  energy without entropy =      -65.34136355  energy(sigma->0) =      -65.34136355


--------------------------------------------------------------------------------------------------------




--------------------------------------- Iteration      1(  14)  ---------------------------------------


    POTLOK:  cpu time    0.3085: real time    0.3134
    SETDIJ:  cpu time    0.0322: real time    0.0324
    EDDIAG:  cpu time    1.3000: real time    1.3122
  RMM-DIIS:  cpu time    4.1164: real time    4.1329
    ORTHCH:  cpu time    0.0718: real time    0.0749
       DOS:  cpu time    0.0004: real time    0.0004
    CHARGE:  cpu time    0.5005: real time    0.5027
    MIXING:  cpu time    0.0038: real time    0.0038
    --------------------------------------------
      LOOP:  cpu time    6.3336: real time    6.3727

 eigenvalue-minimisations  :  3042
 total energy-change (2. order) :-0.3112830E-02  (-0.7324285E-02)
 number of electron      54.0000001 magnetization       0.1856547
 augmentation part       -1.6534302 magnetization       0.1838492

 Broyden mixing:
  rms(total) = 0.48966E-01    rms(broyden)= 0.48966E-01
  rms(prec ) = 0.50238E-01
  weight for this iteration     100.00

 eigenvalues of (default mixing * dielectric matrix)
  average eigenvalue GAMMA=   1.5274
  5.1564  2.0923  2.0923  0.9530  0.9530  0.7246  0.5723  0.6014  0.6014

 Free energy of the ion-electron system (eV)
  ---------------------------------------------------
  alpha Z        PSCENC =       156.26454146
  Ewald energy   TEWEN  =     -2181.61153230
  -Hartree energ DENC   =      -445.92532372
  -exchange      EXHF   =         0.00000000
  -V(xc)+E(xc)   XCENC  =      -105.08819980
  PAW double counting   =      4955.33112432    -4728.03097045
  entropy T*S    EENTRO =        -0.00000000
  eigenvalues    EBANDS =       -29.75800312
  atomic energy  EATOM  =      2313.47388723
  Solvation  Ediel_sol  =         0.00000000
  ---------------------------------------------------
  free energy    TOTEN  =       -65.34447638 eV

  energy without entropy =      -65.34447638  energy(sigma->0) =      -65.34447638


--------------------------------------------------------------------------------------------------------




--------------------------------------- Iteration      1(  15)  ---------------------------------------


    POTLOK:  cpu time    0.3083: real time    0.3128
    SETDIJ:  cpu time    0.0318: real time    0.0319
    EDDIAG:  cpu time    1.3000: real time    1.3126
  RMM-DIIS:  cpu time    4.3811: real time    4.3993
    ORTHCH:  cpu time    0.0704: real time    0.0737
       DOS:  cpu time    0.0004: real time    0.0004
    CHARGE:  cpu time    0.5010: real time    0.5034
    MIXING:  cpu time    0.0040: real time    0.0040
    --------------------------------------------
      LOOP:  cpu time    6.5969: real time    6.6382

 eigenvalue-minimisations  :  3185
 total energy-change (2. order) :-0.3325842E-02  (-0.1248935E-02)
 number of electron      54.0000001 magnetization       0.0473743
 augmentation part       -1.6525686 magnetization       0.0459745

 Broyden mixing:
  rms(total) = 0.33140E-01    rms(broyden)= 0.33140E-01
  rms(prec ) = 0.33990E-01
  weight for this iteration     100.00

 eigenvalues of (default mixing * dielectric matrix)
  average eigenvalue GAMMA=   1.6864
  5.9078  3.0417  1.6985  1.6985  0.9997  0.9997  0.7592  0.5937  0.5937  0.5718

 Free energy of the ion-electron system (eV)
  ---------------------------------------------------
  alpha Z        PSCENC =       156.26454146
  Ewald energy   TEWEN  =     -2181.61153230
  -Hartree energ DENC   =      -445.91356341
  -exchange      EXHF   =         0.00000000
  -V(xc)+E(xc)   XCENC  =      -105.10828369
  PAW double counting   =      4930.28445780    -4702.98505586
  entropy T*S    EENTRO =        -0.00000000
  eigenvalues    EBANDS =       -29.75225345
  atomic energy  EATOM  =      2313.47388723
  Solvation  Ediel_sol  =         0.00000000
  ---------------------------------------------------
  free energy    TOTEN  =       -65.34780222 eV

  energy without entropy =      -65.34780222  energy(sigma->0) =      -65.34780222


--------------------------------------------------------------------------------------------------------




--------------------------------------- Iteration      1(  16)  ---------------------------------------


    POTLOK:  cpu time    0.3012: real time    0.3066
    SETDIJ:  cpu time    0.0322: real time    0.0323
    EDDIAG:  cpu time    1.3077: real time    1.3198
  RMM-DIIS:  cpu time    4.1449: real time    4.1619
    ORTHCH:  cpu time    0.0734: real time    0.0768
       DOS:  cpu time    0.0004: real time    0.0005
    CHARGE:  cpu time    0.5029: real time    0.5051
    MIXING:  cpu time    0.0044: real time    0.0044
    --------------------------------------------
      LOOP:  cpu time    6.3672: real time    6.4073

 eigenvalue-minimisations  :  3051
 total energy-change (2. order) :-0.3655755E-02  (-0.9270103E-03)
 number of electron      54.0000001 magnetization       0.0026413
 augmentation part       -1.6503303 magnetization       0.0011753

 Broyden mixing:
  rms(total) = 0.20543E-01    rms(broyden)= 0.20543E-01
  rms(prec ) = 0.20901E-01
  weight for this iteration     100.00

 eigenvalues of (default mixing * dielectric matrix)
  average eigenvalue GAMMA=   1.6572
  6.4924  2.1995  2.0256  2.0256  1.1045  0.9119  0.9119  0.7312  0.5906  0.5906
  0.6451

 Free energy of the ion-electron system (eV)
  ---------------------------------------------------
  alpha Z        PSCENC =       156.26454146
  Ewald energy   TEWEN  =     -2181.61153230
  -Hartree energ DENC   =      -445.50947886
  -exchange      EXHF   =         0.00000000
  -V(xc)+E(xc)   XCENC  =      -105.17646304
  PAW double counting   =      4853.25504072    -4625.93774385
  entropy T*S    EENTRO =        -0.00000000
  eigenvalues    EBANDS =       -30.10970933
  atomic energy  EATOM  =      2313.47388723
  Solvation  Ediel_sol  =         0.00000000
  ---------------------------------------------------
  free energy    TOTEN  =       -65.35145798 eV

  energy without entropy =      -65.35145798  energy(sigma->0) =      -65.35145798


--------------------------------------------------------------------------------------------------------




--------------------------------------- Iteration      1(  17)  ---------------------------------------


    POTLOK:  cpu time    0.2984: real time    0.3054
    SETDIJ:  cpu time    0.0319: real time    0.0322
    EDDIAG:  cpu time    1.3085: real time    1.3206
  RMM-DIIS:  cpu time    4.1638: real time    4.1810
    ORTHCH:  cpu time    0.0706: real time    0.0738
       DOS:  cpu time    0.0004: real time    0.0004
    CHARGE:  cpu time    0.5007: real time    0.5031
    MIXING:  cpu time    0.0042: real time    0.0043
    --------------------------------------------
      LOOP:  cpu time    6.3785: real time    6.4207

 eigenvalue-minimisations  :  3042
 total energy-change (2. order) :-0.5129893E-03  (-0.3085912E-03)
 number of electron      54.0000001 magnetization       0.0005516
 augmentation part       -1.6501459 magnetization      -0.0003527

 Broyden mixing:
  rms(total) = 0.58443E-02    rms(broyden)= 0.58443E-02
  rms(prec ) = 0.59432E-02
  weight for this iteration     100.00

 eigenvalues of (default mixing * dielectric matrix)
  average eigenvalue GAMMA=   1.5886
  6.5926  2.3662  2.0260  2.0260  1.0325  0.9271  0.9271  0.7612  0.6055  0.6055
  0.5966  0.5966

 Free energy of the ion-electron system (eV)
  ---------------------------------------------------
  alpha Z        PSCENC =       156.26454146
  Ewald energy   TEWEN  =     -2181.61153230
  -Hartree energ DENC   =      -445.99537585
  -exchange      EXHF   =         0.00000000
  -V(xc)+E(xc)   XCENC  =      -105.13648561
  PAW double counting   =      4886.84405640    -4659.56281585
  entropy T*S    EENTRO =        -0.00000000
  eigenvalues    EBANDS =       -29.62824645
  atomic energy  EATOM  =      2313.47388723
  Solvation  Ediel_sol  =         0.00000000
  ---------------------------------------------------
  free energy    TOTEN  =       -65.35197097 eV

  energy without entropy =      -65.35197097  energy(sigma->0) =      -65.35197097


--------------------------------------------------------------------------------------------------------




--------------------------------------- Iteration      1(  18)  ---------------------------------------


    POTLOK:  cpu time    0.2951: real time    0.3006
    SETDIJ:  cpu time    0.0315: real time    0.0316
    EDDIAG:  cpu time    1.3051: real time    1.3172
  RMM-DIIS:  cpu time    4.5556: real time    4.5739
    ORTHCH:  cpu time    0.0714: real time    0.0749
       DOS:  cpu time    0.0004: real time    0.0004
    CHARGE:  cpu time    0.5010: real time    0.5033
    MIXING:  cpu time    0.0044: real time    0.0044
    --------------------------------------------
      LOOP:  cpu time    6.7644: real time    6.8063

 eigenvalue-minimisations  :  3374
 total energy-change (2. order) :-0.1977412E-03  (-0.8716489E-04)
 number of electron      54.0000001 magnetization       0.0001900
 augmentation part       -1.6498157 magnetization      -0.0001522

 Broyden mixing:
  rms(total) = 0.37781E-02    rms(broyden)= 0.37780E-02
  rms(prec ) = 0.39160E-02
  weight for this iteration     100.00

 eigenvalues of (default mixing * dielectric matrix)
  average eigenvalue GAMMA=   1.5185
  6.5933  2.3725  2.0044  2.0044  0.9647  0.9647  0.9775  0.7525  0.6067  0.6016
  0.6016  0.6486  0.6486

 Free energy of the ion-electron system (eV)
  ---------------------------------------------------
  alpha Z        PSCENC =       156.26454146
  Ewald energy   TEWEN  =     -2181.61153230
  -Hartree energ DENC   =      -445.95315930
  -exchange      EXHF   =         0.00000000
  -V(xc)+E(xc)   XCENC  =      -105.14046592
  PAW double counting   =      4884.80050021    -4657.51692457
  entropy T*S    EENTRO =        -0.00000000
  eigenvalues    EBANDS =       -29.66901552
  atomic energy  EATOM  =      2313.47388723
  Solvation  Ediel_sol  =         0.00000000
  ---------------------------------------------------
  free energy    TOTEN  =       -65.35216871 eV

  energy without entropy =      -65.35216871  energy(sigma->0) =      -65.35216871


--------------------------------------------------------------------------------------------------------




--------------------------------------- Iteration      1(  19)  ---------------------------------------


    POTLOK:  cpu time    0.2940: real time    0.2987
    SETDIJ:  cpu time    0.0315: real time    0.0316
    EDDIAG:  cpu time    1.3068: real time    1.3188
  RMM-DIIS:  cpu time    4.3411: real time    4.3592
    ORTHCH:  cpu time    0.0714: real time    0.0746
       DOS:  cpu time    0.0004: real time    0.0004
    CHARGE:  cpu time    0.5013: real time    0.5037
    MIXING:  cpu time    0.0045: real time    0.0046
    --------------------------------------------
      LOOP:  cpu time    6.5510: real time    6.5917

 eigenvalue-minimisations  :  3121
 total energy-change (2. order) :-0.7430698E-04  (-0.1487606E-04)
 number of electron      54.0000001 magnetization       0.0000754
 augmentation part       -1.6499240 magnetization       0.0000085

 Broyden mixing:
  rms(total) = 0.21119E-02    rms(broyden)= 0.21119E-02
  rms(prec ) = 0.22156E-02
  weight for this iteration     100.00

 eigenvalues of (default mixing * dielectric matrix)
  average eigenvalue GAMMA=   1.5948
  6.6052  2.4054  2.4054  2.0312  2.0312  0.9378  0.9378  0.8475  0.8475  0.7293
  0.7293  0.5950  0.5950  0.6292

 Free energy of the ion-electron system (eV)
  ---------------------------------------------------
  alpha Z        PSCENC =       156.26454146
  Ewald energy   TEWEN  =     -2181.61153230
  -Hartree energ DENC   =      -445.87367382
  -exchange      EXHF   =         0.00000000
  -V(xc)+E(xc)   XCENC  =      -105.14469764
  PAW double counting   =      4886.28289733    -4658.99704759
  entropy T*S    EENTRO =        -0.00000000
  eigenvalues    EBANDS =       -29.74661768
  atomic energy  EATOM  =      2313.47388723
  Solvation  Ediel_sol  =         0.00000000
  ---------------------------------------------------
  free energy    TOTEN  =       -65.35224302 eV

  energy without entropy =      -65.35224302  energy(sigma->0) =      -65.35224302


--------------------------------------------------------------------------------------------------------




--------------------------------------- Iteration      1(  20)  ---------------------------------------


    POTLOK:  cpu time    0.2936: real time    0.2987
    SETDIJ:  cpu time    0.0318: real time    0.0319
    EDDIAG:  cpu time    1.3068: real time    1.3188
  RMM-DIIS:  cpu time    4.1832: real time    4.2004
    ORTHCH:  cpu time    0.0729: real time    0.0762
       DOS:  cpu time    0.0004: real time    0.0004
    CHARGE:  cpu time    0.5005: real time    0.5028
    MIXING:  cpu time    0.0047: real time    0.0048
    --------------------------------------------
      LOOP:  cpu time    6.3939: real time    6.4341

 eigenvalue-minimisations  :  3060
 total energy-change (2. order) :-0.8098962E-04  (-0.9591505E-05)
 number of electron      54.0000001 magnetization       0.0000477
 augmentation part       -1.6502715 magnetization       0.0000509

 Broyden mixing:
  rms(total) = 0.14913E-02    rms(broyden)= 0.14913E-02
  rms(prec ) = 0.15343E-02
  weight for this iteration     100.00

 eigenvalues of (default mixing * dielectric matrix)
  average eigenvalue GAMMA=   1.5544
  6.6107  2.5595  2.5595  2.0318  2.0318  0.9405  0.9405  0.7474  0.7474  0.8851
  0.7933  0.6403  0.6403  0.5938  0.5938

 Free energy of the ion-electron system (eV)
  ---------------------------------------------------
  alpha Z        PSCENC =       156.26454146
  Ewald energy   TEWEN  =     -2181.61153230
  -Hartree energ DENC   =      -445.80687175
  -exchange      EXHF   =         0.00000000
  -V(xc)+E(xc)   XCENC  =      -105.14947774
  PAW double counting   =      4887.49523394    -4660.20783121
  entropy T*S    EENTRO =        -0.00000000
  eigenvalues    EBANDS =       -29.81027364
  atomic energy  EATOM  =      2313.47388723
  Solvation  Ediel_sol  =         0.00000000
  ---------------------------------------------------
  free energy    TOTEN  =       -65.35232401 eV

  energy without entropy =      -65.35232401  energy(sigma->0) =      -65.35232401


--------------------------------------------------------------------------------------------------------




--------------------------------------- Iteration      1(  21)  ---------------------------------------


    POTLOK:  cpu time    0.2977: real time    0.3037
    SETDIJ:  cpu time    0.0319: real time    0.0320
    EDDIAG:  cpu time    1.3076: real time    1.3202
  RMM-DIIS:  cpu time    4.4285: real time    4.4464
    ORTHCH:  cpu time    0.0737: real time    0.0772
       DOS:  cpu time    0.0004: real time    0.0004
    CHARGE:  cpu time    0.4966: real time    0.4989
    MIXING:  cpu time    0.0053: real time    0.0053
    --------------------------------------------
      LOOP:  cpu time    6.6416: real time    6.6840

 eigenvalue-minimisations  :  3255
 total energy-change (2. order) :-0.6010153E-05  (-0.2680025E-05)
 number of electron      54.0000001 magnetization       0.0000182
 augmentation part       -1.6499754 magnetization      -0.0000090

 Broyden mixing:
  rms(total) = 0.60580E-03    rms(broyden)= 0.60579E-03
  rms(prec ) = 0.62269E-03
  weight for this iteration     100.00

 eigenvalues of (default mixing * dielectric matrix)
  average eigenvalue GAMMA=   1.5060
  6.6137  2.4791  2.0641  2.0641  1.7277  1.7277  0.9407  0.9407  0.8136  0.8136
  0.7547  0.7547  0.6123  0.6123  0.5881  0.5881

 Free energy of the ion-electron system (eV)
  ---------------------------------------------------
  alpha Z        PSCENC =       156.26454146
  Ewald energy   TEWEN  =     -2181.61153230
  -Hartree energ DENC   =      -445.80414311
  -exchange      EXHF   =         0.00000000
  -V(xc)+E(xc)   XCENC  =      -105.15027482
  PAW double counting   =      4885.89709122    -4658.60929780
  entropy T*S    EENTRO =        -0.00000000
  eigenvalues    EBANDS =       -29.81260189
  atomic energy  EATOM  =      2313.47388723
  Solvation  Ediel_sol  =         0.00000000
  ---------------------------------------------------
  free energy    TOTEN  =       -65.35233002 eV

  energy without entropy =      -65.35233002  energy(sigma->0) =      -65.35233002


--------------------------------------------------------------------------------------------------------




--------------------------------------- Iteration      1(  22)  ---------------------------------------


    POTLOK:  cpu time    0.2924: real time    0.2985
    SETDIJ:  cpu time    0.0315: real time    0.0317
    EDDIAG:  cpu time    1.3095: real time    1.3219
  RMM-DIIS:  cpu time    4.1988: real time    4.2162
    ORTHCH:  cpu time    0.0732: real time    0.0764
       DOS:  cpu time    0.0004: real time    0.0004
    CHARGE:  cpu time    0.4973: real time    0.4994
    MIXING:  cpu time    0.0051: real time    0.0051
    --------------------------------------------
      LOOP:  cpu time    6.4083: real time    6.4496

 eigenvalue-minimisations  :  3111
 total energy-change (2. order) :-0.2023999E-05  (-0.1149999E-05)
 number of electron      54.0000001 magnetization      -0.0000818
 augmentation part       -1.6497711 magnetization      -0.0001760

 Broyden mixing:
  rms(total) = 0.61118E-03    rms(broyden)= 0.61118E-03
  rms(prec ) = 0.63431E-03
  weight for this iteration     100.00

 eigenvalues of (default mixing * dielectric matrix)
  average eigenvalue GAMMA=   1.4955
  6.6158  2.6932  2.0263  2.0263  1.9550  1.9550  0.9784  0.9784  0.7774  0.7774
  0.7532  0.7532  0.6741  0.6741  0.5906  0.5906  0.6051

 Free energy of the ion-electron system (eV)
  ---------------------------------------------------
  alpha Z        PSCENC =       156.26454146
  Ewald energy   TEWEN  =     -2181.61153230
  -Hartree energ DENC   =      -445.82517828
  -exchange      EXHF   =         0.00000000
  -V(xc)+E(xc)   XCENC  =      -105.14954452
  PAW double counting   =      4884.85779130    -4657.57061069
  entropy T*S    EENTRO =        -0.00000000
  eigenvalues    EBANDS =       -29.79168625
  atomic energy  EATOM  =      2313.47388723
  Solvation  Ediel_sol  =         0.00000000
  ---------------------------------------------------
  free energy    TOTEN  =       -65.35233204 eV

  energy without entropy =      -65.35233204  energy(sigma->0) =      -65.35233204


--------------------------------------------------------------------------------------------------------




--------------------------------------- Iteration      1(  23)  ---------------------------------------


    POTLOK:  cpu time    0.2916: real time    0.2968
    SETDIJ:  cpu time    0.0318: real time    0.0320
    EDDIAG:  cpu time    1.3077: real time    1.3200
  RMM-DIIS:  cpu time    4.4496: real time    4.4684
    ORTHCH:  cpu time    0.0727: real time    0.0760
       DOS:  cpu time    0.0004: real time    0.0004
    CHARGE:  cpu time    0.4992: real time    0.5013
    MIXING:  cpu time    0.0053: real time    0.0053
    --------------------------------------------
      LOOP:  cpu time    6.6583: real time    6.7003

 eigenvalue-minimisations  :  3215
 total energy-change (2. order) :-0.1105695E-06  (-0.2774191E-06)
 number of electron      54.0000001 magnetization      -0.0000381
 augmentation part       -1.6497181 magnetization      -0.0001030

 Broyden mixing:
  rms(total) = 0.53806E-03    rms(broyden)= 0.53806E-03
  rms(prec ) = 0.55411E-03
  weight for this iteration     100.00

 eigenvalues of (default mixing * dielectric matrix)
  average eigenvalue GAMMA=   1.5265
  6.6128  2.7990  2.7990  2.0441  2.0441  1.9828  1.0508  0.9331  0.9331  0.8466
  0.8466  0.8182  0.6645  0.6645  0.5866  0.5866  0.6322  0.6322

 Free energy of the ion-electron system (eV)
  ---------------------------------------------------
  alpha Z        PSCENC =       156.26454146
  Ewald energy   TEWEN  =     -2181.61153230
  -Hartree energ DENC   =      -445.81226526
  -exchange      EXHF   =         0.00000000
  -V(xc)+E(xc)   XCENC  =      -105.15022374
  PAW double counting   =      4884.90201266    -4657.61446302
  entropy T*S    EENTRO =        -0.00000000
  eigenvalues    EBANDS =       -29.80428918
  atomic energy  EATOM  =      2313.47388723
  Solvation  Ediel_sol  =         0.00000000
  ---------------------------------------------------
  free energy    TOTEN  =       -65.35233215 eV

  energy without entropy =      -65.35233215  energy(sigma->0) =      -65.35233215


--------------------------------------------------------------------------------------------------------




--------------------------------------- Iteration      1(  24)  ---------------------------------------


    POTLOK:  cpu time    0.2928: real time    0.2974
    SETDIJ:  cpu time    0.0318: real time    0.0319
    EDDIAG:  cpu time    1.3086: real time    1.3207
  RMM-DIIS:  cpu time    4.2476: real time    4.2654
    ORTHCH:  cpu time    0.0716: real time    0.0750
       DOS:  cpu time    0.0004: real time    0.0004
    CHARGE:  cpu time    0.4982: real time    0.5003
    MIXING:  cpu time    0.0055: real time    0.0055
    --------------------------------------------
      LOOP:  cpu time    6.4565: real time    6.4967

[...]
     31       6.9981      0.00000
     32       7.0388      0.00000
     33       7.0478      0.00000
     34       7.7213      0.00000
     35       7.8040      0.00000
     36       7.9355      0.00000
     37       8.7887      0.00000
     38       8.8540      0.00000

 k-point    18 :      -0.3125    0.3125    0.0000
  band No.  band energies     occupation 
      1      -8.5044      1.00000
      2      -8.4305      1.00000
      3      -8.4248      1.00000
      4      -7.8694      1.00000
      5      -7.8610      1.00000
      6      -7.7646      1.00000
      7      -0.7964      1.00000
      8      -0.6105      1.00000
      9      -0.6064      1.00000
     10       0.3351      1.00000
     11       0.3363      1.00000
     12       0.4773      1.00000
     13       0.5892      1.00000
     14       0.6586      1.00000
     15       0.7289      1.00000
     16       1.7128      1.00000
     17       1.7139      1.00000
     18       1.7394      1.00000
     19       2.7385      1.00000
     20       2.8732      1.00000
     21       2.9988      1.00000
     22       3.0349      1.00000
     23       3.0372      1.00000
     24       3.1947      1.00000
     25       3.4937      1.00000
     26       3.5595      1.00000
     27       3.5892      1.00000
     28       6.4932      0.00000
     29       6.6576      0.00000
     30       6.7223      0.00000
     31       6.7250      0.00000
     32       6.8962      0.00000
     33       6.9083      0.00000
     34       7.7323      0.00000
     35       7.7735      0.00000
     36       8.0651      0.00000
     37       8.4369      0.00000
     38       8.4451      0.00000

 k-point    19 :       0.4375    0.4375    0.0000
  band No.  band energies     occupation 
      1      -7.7319      1.00000
      2      -7.7319      1.00000
      3      -7.6980      1.00000
      4      -7.5206      1.00000
      5      -7.4816      1.00000
      6      -7.4816      1.00000
      7      -1.0746      1.00000
      8      -1.0746      1.00000
      9      -1.0170      1.00000
     10      -0.5103      1.00000
     11      -0.4619      1.00000
     12      -0.4619      1.00000
     13       0.4201      1.00000
     14       0.4201      1.00000
     15       0.5793      1.00000
     16       1.2777      1.00000
     17       1.3273      1.00000
     18       1.3273      1.00000
     19       2.4673      1.00000
     20       2.5525      1.00000
     21       2.6183      1.00000
     22       2.6183      1.00000
     23       2.6912      1.00000
     24       2.6912      1.00000
     25       4.0815      1.00000
     26       4.0815      1.00000
     27       4.1384      1.00000
     28       6.6562      0.00000
     29       6.6562      0.00000
     30       6.6889      0.00000
     31       7.3011      0.00000
     32       7.3011      0.00000
     33       7.3765      0.00000
     34       8.1321      0.00000
     35       8.1321      0.00000
     36       8.2686      0.00000
     37       8.5848      0.00000
     38       8.8075      0.00000

 k-point    20 :      -0.4375    0.4375    0.0000
  band No.  band energies     occupation 
      1      -7.9072      1.00000
      2      -7.8775      1.00000
      3      -7.8540      1.00000
      4      -7.6092      1.00000
      5      -7.5806      1.00000
      6      -7.5471      1.00000
      7      -1.2261      1.00000
      8      -1.1887      1.00000
      9      -1.1479      1.00000
     10      -0.2804      1.00000
     11      -0.2221      1.00000
     12      -0.1694      1.00000
     13       0.3855      1.00000
     14       0.4184      1.00000
     15       0.5584      1.00000
     16       1.3593      1.00000
     17       1.3597      1.00000
     18       1.3877      1.00000
     19       2.4549      1.00000
     20       2.6764      1.00000
     21       2.7949      1.00000
     22       3.4204      1.00000
     23       3.4876      1.00000
     24       3.4886      1.00000
     25       3.6693      1.00000
     26       3.7654      1.00000
     27       3.8026      1.00000
     28       6.6467      0.00000
     29       6.6734      0.00000
     30       6.6735      0.00000
     31       6.9987      0.00000
     32       7.1627      0.00000
     33       7.1707      0.00000
     34       8.1743      0.00000
     35       8.3538      0.00000
     36       8.5003      0.00000
     37       8.6695      0.00000
     38       8.6732      0.00000


--------------------------------------------------------------------------------------------------------


 soft charge-density along one line, spin component           1
         0         1         2         3         4         5         6         7         8         9
 total charge-density along one line

 soft charge-density along one line, spin component           2
         0         1         2         3         4         5         6         7         8         9
 total charge-density along one line

 pseudopotential strength for first ion, spin component:           1
 -7.865   0.000   0.000  -0.000  -0.000  -8.080   0.000   0.000
  0.000  -7.865   0.000  -0.000  -0.000   0.000  -8.080   0.000
  0.000   0.000  -7.844   0.000  -0.000   0.000   0.000  -8.059
 -0.000  -0.000   0.000  -7.865   0.000  -0.000  -0.000   0.000
 -0.000  -0.000  -0.000   0.000  -7.865  -0.000  -0.000  -0.000
 -8.080   0.000   0.000  -0.000  -0.000  -8.284   0.000   0.000
  0.000  -8.080   0.000  -0.000  -0.000   0.000  -8.285   0.000
  0.000   0.000  -8.059   0.000  -0.000   0.000   0.000  -8.264
 -0.000  -0.000   0.000  -8.080   0.000  -0.000  -0.000   0.000
 -0.000  -0.000  -0.000   0.000  -8.080  -0.000  -0.000  -0.000
  0.000  -0.000  -0.005  -0.000  -0.000   0.000  -0.000  -0.005
  0.000  -0.000  -0.009  -0.000  -0.000   0.000  -0.000  -0.009
  0.000   0.000   0.000   0.000   0.007   0.000   0.000   0.000
  0.000   0.000   0.000   0.000  -0.000   0.000   0.000   0.000
  0.007   0.000  -0.000   0.000   0.000   0.008   0.000  -0.000
  0.000   0.000   0.000   0.000   0.009   0.000   0.000   0.000
  0.000   0.000   0.000   0.000  -0.000   0.000   0.000   0.000
  0.009   0.000  -0.000   0.000   0.000   0.009   0.000  -0.000
 pseudopotential strength for first ion, spin component:           2
 -7.865   0.000   0.000  -0.000  -0.000  -8.080   0.000   0.000
  0.000  -7.865   0.000  -0.000  -0.000   0.000  -8.080   0.000
  0.000   0.000  -7.844   0.000  -0.000   0.000   0.000  -8.059
 -0.000  -0.000   0.000  -7.865   0.000  -0.000  -0.000   0.000
 -0.000  -0.000  -0.000   0.000  -7.865  -0.000  -0.000  -0.000
 -8.080   0.000   0.000  -0.000  -0.000  -8.284   0.000   0.000
  0.000  -8.080   0.000  -0.000  -0.000   0.000  -8.285   0.000
  0.000   0.000  -8.059   0.000  -0.000   0.000   0.000  -8.264
 -0.000  -0.000   0.000  -8.080   0.000  -0.000  -0.000   0.000
 -0.000  -0.000  -0.000   0.000  -8.080  -0.000  -0.000  -0.000
  0.000  -0.000  -0.005  -0.000  -0.000   0.000  -0.000  -0.005
  0.000  -0.000  -0.009  -0.000  -0.000   0.000  -0.000  -0.009
  0.000   0.000   0.000   0.000   0.007   0.000   0.000   0.000
  0.000   0.000   0.000   0.000  -0.000   0.000   0.000   0.000
  0.007   0.000  -0.000   0.000   0.000   0.008   0.000  -0.000
  0.000   0.000   0.000   0.000   0.009   0.000   0.000   0.000
  0.000   0.000   0.000   0.000  -0.000   0.000   0.000   0.000
  0.009   0.000  -0.000   0.000   0.000   0.009   0.000  -0.000
 total augmentation occupancy for first ion, spin component:           1
  2.848   0.000   0.000  -0.000  -0.000  -3.477   0.000  -0.000   0.000   0.000  -0.000   0.000   0.000  -0.000  -0.414  -0.000
  0.000   4.559  -0.000  -0.000  -0.000  -0.000  -5.849   0.000   0.000   0.000   0.000   0.000   0.000  -0.000  -0.000  -0.000
  0.000  -0.000   1.908  -0.000   0.000  -0.000   0.000  -2.226  -0.000  -0.000  -0.096   0.020  -0.000  -0.001  -0.000   0.000
 -0.000  -0.000  -0.000   4.559  -0.000   0.000   0.000   0.000  -5.849   0.000   0.000  -0.000  -0.000  -0.000   0.000   0.000
 -0.000  -0.000   0.000  -0.000   2.848  -0.000   0.000  -0.000   0.000  -3.477   0.000   0.000  -0.414  -0.000  -0.000   0.059
 -3.477   0.000  -0.000   0.000   0.000   5.003   0.000   0.000  -0.000   0.000   0.000  -0.000  -0.000   0.000   0.481   0.000
  0.000  -5.849   0.000   0.000   0.000   0.000   7.952  -0.000  -0.000  -0.000  -0.000   0.000  -0.000  -0.000   0.000   0.000
 -0.000   0.000  -2.226  -0.000  -0.000   0.000  -0.000   3.514  -0.000   0.000   0.225  -0.028   0.000   0.000   0.000  -0.000
  0.000   0.000  -0.000  -5.849   0.000  -0.000  -0.000   0.000   7.952   0.000   0.000  -0.000   0.000   0.000  -0.000  -0.000
 -0.000   0.000  -0.000   0.000  -3.477   0.000  -0.000   0.000  -0.000   5.003   0.000  -0.000   0.481   0.000   0.000  -0.065
 -0.000   0.000  -0.096   0.000   0.000   0.000  -0.000   0.225   0.000   0.000   1.728  -0.118  -0.000  -0.000   0.000   0.000
  0.000   0.000   0.020  -0.000   0.000  -0.000   0.000  -0.028  -0.000  -0.000  -0.118   0.010  -0.000  -0.000   0.000   0.000
  0.000   0.000  -0.000  -0.000  -0.414  -0.000  -0.000   0.000   0.000   0.481  -0.000  -0.000   0.351  -0.000  -0.000  -0.044
 -0.000  -0.000  -0.001  -0.000  -0.000   0.000  -0.000   0.000   0.000   0.000  -0.000  -0.000  -0.000   0.422  -0.000   0.000
 -0.414  -0.000  -0.000   0.000  -0.000   0.481  -0.000   0.000  -0.000   0.000   0.000   0.000  -0.000  -0.000   0.351   0.000
 -0.000  -0.000   0.000   0.000   0.059   0.000   0.000  -0.000  -0.000  -0.065   0.000   0.000  -0.044   0.000   0.000   0.006
  0.000  -0.000   0.000   0.000   0.000  -0.000   0.000   0.000  -0.000  -0.000   0.000  -0.000   0.000  -0.051  -0.000   0.000
  0.059   0.000   0.000  -0.000   0.000  -0.065  -0.000  -0.000   0.000  -0.000   0.000  -0.000   0.000  -0.000  -0.044  -0.000
 total augmentation occupancy for first ion, spin component:           2
  0.000   0.000   0.000  -0.000   0.000  -0.000  -0.000   0.000   0.000   0.000   0.000   0.000   0.000  -0.000  -0.000  -0.000
  0.000   0.000  -0.000  -0.000  -0.000  -0.000  -0.000   0.000  -0.000   0.000  -0.000  -0.000   0.000  -0.000  -0.000  -0.000
  0.000  -0.000   0.000  -0.000   0.000  -0.000   0.000   0.000   0.000  -0.000  -0.000   0.000  -0.000   0.000  -0.000   0.000
 -0.000   0.000  -0.000   0.000  -0.000   0.000   0.000   0.000  -0.000   0.000   0.000   0.000  -0.000   0.000   0.000   0.000
  0.000  -0.000   0.000  -0.000   0.000   0.000   0.000  -0.000   0.000  -0.000  -0.000   0.000  -0.000   0.000  -0.000   0.000
 -0.000  -0.000  -0.000   0.000   0.000   0.000   0.000  -0.000  -0.000  -0.000  -0.000   0.000  -0.000   0.000   0.000  -0.000
 -0.000  -0.000   0.000   0.000   0.000   0.000   0.000  -0.000  -0.000  -0.000  -0.000   0.000  -0.000  -0.000   0.000   0.000
  0.000   0.000   0.000   0.000  -0.000  -0.000  -0.000  -0.000  -0.000  -0.000  -0.000   0.000   0.000   0.000   0.000   0.000
  0.000  -0.000   0.000  -0.000   0.000  -0.000   0.000  -0.000   0.000  -0.000  -0.000   0.000   0.000  -0.000  -0.000  -0.000
  0.000   0.000  -0.000  -0.000  -0.000  -0.000  -0.000  -0.000  -0.000   0.000  -0.000   0.000   0.000   0.000   0.000   0.000
  0.000  -0.000  -0.000   0.000  -0.000  -0.000  -0.000  -0.000  -0.000  -0.000  -0.000   0.000   0.000  -0.000   0.000   0.000
  0.000  -0.000   0.000   0.000   0.000   0.000   0.000   0.000   0.000   0.000   0.000  -0.000   0.000  -0.000  -0.000   0.000
  0.000   0.000  -0.000  -0.000  -0.000  -0.000  -0.000   0.000   0.000   0.000   0.000   0.000  -0.000  -0.000   0.000  -0.000
 -0.000  -0.000   0.000   0.000   0.000  -0.000   0.000   0.000  -0.000   0.000  -0.000  -0.000  -0.000   0.000  -0.000   0.000
 -0.000  -0.000  -0.000   0.000  -0.000   0.000   0.000   0.000  -0.000  -0.000   0.000  -0.000   0.000  -0.000  -0.000   0.000
 -0.000  -0.000   0.000   0.000   0.000  -0.000   0.000   0.000  -0.000   0.000   0.000   0.000  -0.000   0.000   0.000   0.000
 -0.000  -0.000  -0.000   0.000  -0.000  -0.000   0.000  -0.000  -0.000  -0.000   0.000   0.000  -0.000  -0.000  -0.000  -0.000
  0.000   0.000   0.000  -0.000   0.000   0.000  -0.000   0.000   0.000   0.000   0.000   0.000   0.000   0.000  -0.000  -0.000


------------------------ aborting loop because EDIFF is reached ----------------------------------------


    CHARGE:  cpu time    0.4921: real time    0.4941
    FORLOC:  cpu time    0.0103: real time    0.0103
    FORNL :  cpu time    1.8020: real time    1.8087
    STRESS:  cpu time    1.8537: real time    1.8611
    FORCOR:  cpu time    0.3000: real time    0.3014
    FORHAR:  cpu time    0.0355: real time    0.0357
    MIXING:  cpu time    0.0038: real time    0.0038
    OFIELD:  cpu time    0.0000: real time    0.0000

 ---------------------------------------------------------------------------------------------

         DFTD3 V3.0 Rev 1        
 Edisp (eV)   -3.58710

 E6    (eV) :    -2.1385
 E8    (eV) :    -1.4486
 % E8        : 40.38
    FORVDW:  cpu time    0.0214: real time    0.0215

  FORCE on cell =-STRESS in cart. coord.  units (eV):
  Direction    XX          YY          ZZ          XY          YZ          ZX
  --------------------------------------------------------------------------------------
  Alpha Z   156.26454   156.26454   156.26454
  Ewald    -483.65109  -483.65109 -1223.37386    -0.00000    -0.00000    -0.00000
  Hartree   325.18874   325.18874  -212.72871     0.00000    -0.00000    -0.00000
  E(xc)    -211.33944  -211.33944  -212.86233    -0.00000    -0.00000    -0.00000
  Local    -802.84886  -802.84878   457.76917    -0.00000    -0.00000    -0.00000
  n-local   380.11859   380.11542   395.58364     0.56688    -0.00009     0.08977
  augment   -76.77185   -76.77195   -80.04175    -0.00000     0.00000    -0.00000
  Kinetic   713.27769   713.31478   720.45869    14.61542     0.00011    -0.27716
  Fock        0.00000     0.00000     0.00000     0.00000     0.00000     0.00000
  vdW        -3.69876    -3.69876    -3.51963    -0.00000    -0.00000     0.00000
  -------------------------------------------------------------------------------------
  Total      -3.44349    -3.44349    -2.45023     0.00000     0.00000     0.00000
  in kB     -32.30825   -32.30825   -22.98903     0.00000     0.00000     0.00000
  external pressure =      -29.20 kB  Pullay stress =        0.00 kB


 VOLUME and BASIS-vectors are now :
 -----------------------------------------------------------------------------
  energy-cutoff  :      500.00
  volume of cell :      170.76
      direct lattice vectors                 reciprocal lattice vectors
     1.592151915 -2.757688011  0.000000000     0.314040385 -0.181311301  0.000000000
     1.592151915  2.757688011  0.000000000     0.314040385  0.181311301 -0.000000000
     0.000000000  0.000000000 19.446295139    -0.000000000  0.000000000  0.051423677

  length of vectors
     3.184303831  3.184303831 19.446295139     0.362622601  0.362622601  0.051423677


 FORCES acting on ions
    electron-ion (+dipol)            ewald-force                    non-local-force                 convergence-correction
 -----------------------------------------------------------------------------------------------
   -.138E-08 -.436E-07 0.288E-01   -.181E-13 -.308E-11 -.357E-01   -.249E-16 -.140E-16 0.425E-02   0.642E-14 0.258E-09 -.116E-04
   -.138E-08 -.436E-07 0.288E-01   0.178E-13 0.152E-11 -.357E-01   0.185E-16 -.313E-17 0.425E-02   -.161E-14 0.258E-09 -.116E-04
   -.138E-08 -.436E-07 0.288E-01   -.783E-14 -.313E-11 -.357E-01   -.170E-16 -.333E-16 0.425E-02   -.673E-15 0.258E-09 -.116E-04
   -.781E-07 -.221E-08 -.176E+03   0.231E-15 0.161E-11 0.180E+03   -.476E-16 0.150E-16 -.471E+01   -.320E-14 -.246E-10 0.342E-03
   0.446E-07 -.794E-08 0.176E+03   0.177E-13 0.150E-11 -.180E+03   -.109E-17 0.526E-17 0.474E+01   -.344E-14 -.297E-09 -.417E-03
   -.781E-07 -.222E-08 -.176E+03   -.425E-14 0.157E-11 0.180E+03   0.163E-16 0.183E-17 -.471E+01   -.371E-14 -.246E-10 0.342E-03
   0.446E-07 -.795E-08 0.176E+03   -.299E-15 -.788E-12 -.180E+03   -.194E-17 0.768E-17 0.474E+01   0.135E-14 -.297E-09 -.417E-03
   -.781E-07 -.222E-08 -.176E+03   -.243E-13 -.780E-12 0.180E+03   -.660E-17 -.639E-17 -.471E+01   -.289E-15 -.246E-10 0.342E-03
   0.446E-07 -.793E-08 0.176E+03   0.742E-14 0.157E-11 -.180E+03   0.433E-17 0.112E-16 0.474E+01   -.546E-15 -.297E-09 -.417E-03
 -----------------------------------------------------------------------------------------------
   -.104E-06 -.161E-06 -.106E+00   -.116E-13 0.460E-14 -.568E-13   -.599E-16 -.158E-16 0.106E+00   -.570E-14 -.191E-09 -.260E-03


 POSITION                                       TOTAL-FORCE (eV/Angst)
 -----------------------------------------------------------------------------------
      1.59215     -0.91923      6.47773        -0.000000      0.000000     -0.002810
      1.59215      0.91923     12.95983        -0.000000      0.000000     -0.002810
     -0.00000      0.00000     19.44192         0.000000      0.000000     -0.002810
      1.59215      0.91923      1.55618        -0.000000     -0.000000      0.001838
     -0.00000     -0.00000      4.91734         0.000000     -0.000000      0.000972
      0.00000      0.00000      8.03828        -0.000000      0.000000      0.001838
      1.59215     -0.91923     11.39944         0.000000     -0.000000      0.000972
      1.59215     -0.91923     14.52038        -0.000000     -0.000000      0.001838
      1.59215      0.91923     17.88154         0.000000     -0.000000      0.000972
 -----------------------------------------------------------------------------------
    total drift:                               -0.000000     -0.000000     -0.000183


--------------------------------------------------------------------------------------------------------



  FREE ENERGIE OF THE ION-ELECTRON SYSTEM (eV)
  ---------------------------------------------------
  free  energy   TOTEN  =       -68.94376829 eV

  energy  without entropy=      -68.94376829  energy(sigma->0) =      -68.94376829

 d Force = 0.1273804E-04[-0.177E-06, 0.257E-04]  d Energy = 0.9830551E-05 0.291E-05
 d Force = 0.4952649E+00[ 0.495E+00, 0.495E+00]  d Ewald  = 0.4952650E+00-0.517E-08


--------------------------------------------------------------------------------------------------------


    POTLOK:  cpu time    0.3247: real time    0.3262


--------------------------------------------------------------------------------------------------------


 Quasi-Newton relaxation of ions (Broydens 2nd method)
  g(Force)  = 0.177E-05   g(Stress)= 0.000E+00

 retain information from N=  2 steps
 eigenvalues of (default step * inverse Hessian matrix)
  average eigenvalue of G=   1.1837
 eigenvalue spectrum of G is  1.0770  1.2903


--------------------------------------------------------------------------------------------------------


  
 reached required accuracy - stopping structural energy minimisation
 writing wavefunctions
     LOOP+:  cpu time   42.1683: real time   43.0972
    4ORBIT:  cpu time    0.0000: real time    0.0000

 total amount of memory used by VASP MPI-rank0   155293. kBytes
=======================================================================

   base      :      30000. kBytes
   nonl-proj :      25788. kBytes
   fftplans  :      11528. kBytes
   grid      :      33343. kBytes
   one-center:        279. kBytes
   wavefun   :      54355. kBytes

  
  
 General timing and accounting informations for this job:
 ========================================================
  
                  Total CPU time used (sec):      286.579
                            User time (sec):      281.674
                          System time (sec):        4.905
                         Elapsed time (sec):      290.160
  
                   Maximum memory used (kb):      218744.
                   Average memory used (kb):          N/A
  
                          Minor page faults:       325897
                          Major page faults:           24
                 Voluntary context switches:         3500
