<?xml version="1.0" encoding="ISO-8859-1"?>
<modeling>
 <generator>
  <i name="program" type="string">vasp </i>
  <i name="version" type="string">6.2.0  </i>
  <i name="subversion" type="string">18Jan21 (build Jul 28 2023 11:58:00) complex                          parallel </i>
  <i name="platform" type="string">LinuxGNU </i>
  <i name="date" type="string">2025 02 13 </i>
  <i name="time" type="string">07:58:26 </i>
 </generator>
 <incar>
  <i type="string" name="PREC">Accurate</i>
  <i type="string" name="ALGO">Fast</i>
  <i type="int" name="ISPIN">     2</i>
  <i type="int" name="NELM">   100</i>
  <i type="int" name="IBRION">     1</i>
  <i name="EDIFF">      0.00000010</i>
  <i name="EDIFFG">     -0.01000000</i>
  <i type="int" name="NSW">   500</i>
  <i type="int" name="ISIF">     2</i>
  <i name="ENMAX">    500.00000000</i>
  <i type="int" name="ISMEAR">     0</i>
  <i name="SIGMA">      0.01000000</i>
  <i type="int" name="IVDW">    12</i>
 </incar>
 <primitive_cell>
  <structure name="primitive_cell" >
   <crystal>
    <varray name="basis" >
     <v>       0.00000000      -1.83845867      -6.48209838 </v>
     <v>      -1.59215192       0.91922934      -6.48209838 </v>
     <v>       1.59215192       0.91922934      -6.48209838 </v>
    </varray>
    <i name="volume">     56.92135744 </i>
    <varray name="rec_basis" >
     <v>      -0.00000000      -0.36262260      -0.05142368 </v>
     <v>      -0.31404038       0.18131130      -0.05142368 </v>
     <v>       0.31404038       0.18131130      -0.05142368 </v>
    </varray>
   </crystal>
   <varray name="positions" >
    <v>       0.00022496       0.00022496       0.00022496 </v>
    <v>       0.58706978       0.58706978       0.58706978 </v>
    <v>       0.74670426       0.74670426       0.74670426 </v>
   </varray>
  </structure>
  <varray name="primitive_index" >
   <v type="int" >        1 </v>
   <v type="int" >        8 </v>
   <v type="int" >        7 </v>
  </varray>
 </primitive_cell>
 <kpoints>
  <generation param="Monkhorst-Pack">
   <v type="int" name="divisions">       8        8        1 </v>
   <v name="usershift">      0.00000000       0.00000000       0.00000000 </v>
   <v name="genvec1">      0.12500000      -0.00000000       0.00000000 </v>
   <v name="genvec2">     -0.00000000       0.12500000       0.00000000 </v>
   <v name="genvec3">      0.00000000       0.00000000       1.00000000 </v>
   <v name="shift">      0.50000000       0.50000000       0.00000000 </v>
  </generation>
  <varray name="kpointlist" >
   <v>       0.06250000       0.06250000       0.00000000 </v>
   <v>       0.18750000       0.06250000       0.00000000 </v>
   <v>       0.31250000       0.06250000       0.00000000 </v>
   <v>       0.43750000       0.06250000       0.00000000 </v>
   <v>      -0.43750000       0.06250000       0.00000000 </v>
   <v>      -0.31250000       0.06250000       0.00000000 </v>
   <v>      -0.18750000       0.06250000       0.00000000 </v>
   <v>      -0.06250000       0.06250000       0.00000000 </v>
   <v>       0.18750000       0.18750000       0.00000000 </v>
   <v>       0.31250000       0.18750000       0.00000000 </v>
   <v>       0.43750000       0.18750000       0.00000000 </v>
   <v>      -0.43750000       0.18750000       0.00000000 </v>
   <v>      -0.31250000       0.18750000       0.00000000 </v>
   <v>      -0.18750000       0.18750000       0.00000000 </v>
   <v>       0.31250000       0.31250000       0.00000000 </v>
   <v>       0.43750000       0.31250000       0.00000000 </v>
   <v>      -0.43750000       0.31250000       0.00000000 </v>
   <v>      -0.31250000       0.31250000       0.00000000 </v>
   <v>       0.43750000       0.43750000       0.00000000 </v>
   <v>      -0.43750000       0.43750000       0.00000000 </v>
  </varray>
  <varray name="weights" >
   <v>       0.03125000 </v>
   <v>       0.06250000 </v>
   <v>       0.06250000 </v>
   <v>       0.06250000 </v>
   <v>       0.06250000 </v>
   <v>       0.06250000 </v>
   <v>       0.06250000 </v>
   <v>       0.03125000 </v>
   <v>       0.03125000 </v>
   <v>       0.06250000 </v>
   <v>       0.06250000 </v>
   <v>       0.06250000 </v>
   <v>       0.06250000 </v>
   <v>       0.03125000 </v>
   <v>       0.03125000 </v>
   <v>       0.06250000 </v>
   <v>       0.06250000 </v>
   <v>       0.03125000 </v>
   <v>       0.03125000 </v>
   <v>       0.03125000 </v>
  </varray>
 </kpoints>
 <parameters>
  <separator name="general" >
   <i type="string" name="SYSTEM">unknown system</i>
   <i type="logical" name="LCOMPAT"> F  </i>
  </separator>
  <separator name="electronic" >
   <i type="string" name="PREC">accura</i>
   <i name="ENMAX">    500.00000000</i>
   <i name="ENAUG">    345.27800000</i>
   <i name="EDIFF">      0.00000010</i>
   <i type="int" name="IALGO">    68</i>
   <i type="int" name="IWAVPR">    11</i>
   <i type="int" name="NBANDS">    38</i>
   <i type="int" name="NBANDSLOW">    -1</i>
   <i type="int" name="NBANDSHIGH">    -1</i>
   <i name="NELECT">     54.00000000</i>
   <i type="int" name="TURBO">     0</i>
   <i type="int" name="IRESTART">     0</i>
   <i type="int" name="NREBOOT">     0</i>
   <i type="int" name="NMIN">     0</i>
   <i name="EREF">      0.00000000</i>
   <separator name="electronic smearing" >
    <i type="int" name="ISMEAR">     0</i>
    <i name="SIGMA">      0.01000000</i>
    <i name="KSPACING">      0.50000000</i>
    <i type="logical" name="KGAMMA"> T  </i>
    <i type="logical" name="KBLOWUP"> T  </i>
   </separator>
   <separator name="electronic projectors" >
    <i type="logical" name="LREAL"> F  </i>
    <v name="ROPT">      0.00000000      0.00000000</v>
    <i type="int" name="LMAXPAW">  -100</i>
    <i type="int" name="LMAXMIX">     2</i>
    <i type="logical" name="NLSPLINE"> F  </i>
   </separator>
   <separator name="electronic startup" >
    <i type="int" name="ISTART">     0</i>
    <i type="int" name="ICHARG">     2</i>
    <i type="int" name="INIWAV">     1</i>
   </separator>
   <separator name="electronic spin" >
    <i type="int" name="ISPIN">     2</i>
    <i type="logical" name="LNONCOLLINEAR"> F  </i>
    <v name="MAGMOM">      1.00000000      1.00000000      1.00000000      1.00000000      1.00000000      1.00000000      1.00000000      1.00000000      1.00000000</v>
    <i name="NUPDOWN">     -1.00000000</i>
    <i type="logical" name="LSORBIT"> F  </i>
    <v name="SAXIS">      0.00000000      0.00000000      1.00000000</v>
    <i type="logical" name="LSPIRAL"> F  </i>
    <v name="QSPIRAL">      0.00000000      0.00000000      0.00000000</v>
    <i type="logical" name="LZEROZ"> F  </i>
   </separator>
   <separator name="electronic exchange-correlation" >
    <i type="logical" name="LASPH"> F  </i>
    <i type="logical" name="LMETAGGA"> F  </i>
   </separator>
   <separator name="electronic convergence" >
    <i type="int" name="NELM">   100</i>
    <i type="int" name="NELMDL">    -5</i>
    <i type="int" name="NELMIN">     2</i>
    <i name="ENINI">    500.00000000</i>
    <separator name="electronic convergence detail" >
     <i type="logical" name="LDIAG"> T  </i>
     <i type="logical" name="LSUBROT"> F  </i>
     <i name="WEIMIN">      0.00100000</i>
     <i name="EBREAK">      0.00000000</i>
     <i name="DEPER">      0.30000000</i>
     <i type="int" name="NRMM">     4</i>
     <i name="TIME">      0.40000000</i>
    </separator>
   </separator>
   <separator name="electronic mixer" >
    <i name="AMIX">      0.40000000</i>
    <i name="BMIX">      1.00000000</i>
    <i name="AMIN">      0.10000000</i>
    <i name="AMIX_MAG">      1.60000000</i>
    <i name="BMIX_MAG">      1.00000000</i>
    <separator name="electronic mixer details" >
     <i type="int" name="IMIX">     4</i>
     <i type="logical" name="MIXFIRST"> F  </i>
     <i type="int" name="MAXMIX">   -45</i>
     <i name="WC">    100.00000000</i>
     <i type="int" name="INIMIX">     1</i>
     <i type="int" name="MIXPRE">     1</i>
     <i type="int" name="MREMOVE">     5</i>
    </separator>
   </separator>
   <separator name="electronic dipolcorrection" >
    <i type="logical" name="LDIPOL"> F  </i>
    <i type="logical" name="LMONO"> F  </i>
    <i type="int" name="IDIPOL">     0</i>
    <i name="EPSILON">      1.00000000</i>
    <v name="DIPOL">   -100.00000000   -100.00000000   -100.00000000</v>
    <i name="EFIELD">      0.00000000</i>
   </separator>
  </separator>
  <separator name="grids" >
   <i type="int" name="NGX">    24</i>
   <i type="int" name="NGY">    24</i>
   <i type="int" name="NGZ">   144</i>
   <i type="int" name="NGXF">    48</i>
   <i type="int" name="NGYF">    48</i>
   <i type="int" name="NGZF">   288</i>
   <i type="logical" name="ADDGRID"> F  </i>
  </separator>
  <separator name="ionic" >
   <i type="int" name="NSW">   500</i>
   <i type="int" name="IBRION">     1</i>
   <i type="int" name="MDALGO">     0</i>
   <i type="int" name="ISIF">     2</i>
   <i name="PSTRESS">      0.00000000</i>
   <i name="EDIFFG">     -0.01000000</i>
   <i type="int" name="NFREE">     0</i>
   <i name="POTIM">      0.50000000</i>
   <i name="SMASS">     -3.00000000</i>
   <i name="SCALEE">      1.00000000</i>
  </separator>
  <separator name="ionic md" >
   <i name="TEBEG">      0.00010000</i>
   <i name="TEEND">      0.00010000</i>
   <i type="int" name="NBLOCK">     1</i>
   <i type="int" name="KBLOCK">   500</i>
   <i type="int" name="NPACO">   256</i>
   <i name="APACO">     16.00000000</i>
  </separator>
  <separator name="symmetry" >
   <i type="int" name="ISYM">     2</i>
   <i name="SYMPREC">      0.00001000</i>
  </separator>
  <separator name="dos" >
   <i type="int" name="LORBIT">     0</i>
   <v name="RWIGS">     -1.00000000     -1.00000000</v>
   <i type="int" name="NEDOS">   301</i>
   <i name="EMIN">     10.00000000</i>
   <i name="EMAX">    -10.00000000</i>
   <i name="EFERMI">      0.00000000</i>
  </separator>
  <separator name="writing" >
   <i type="int" name="NWRITE">     2</i>
   <i type="logical" name="LWAVE"> T  </i>
   <i type="logical" name="LDOWNSAMPLE"> F  </i>
   <i type="logical" name="LCHARG"> T  </i>
   <i type="logical" name="LPARD"> F  </i>
   <i type="logical" name="LVTOT"> F  </i>
   <i type="logical" name="LVHAR"> F  </i>
   <i type="logical" name="LELF"> F  </i>
   <i type="logical" name="LOPTICS"> F  </i>
   <v name="STM">      0.00000000      0.00000000      0.00000000      0.00000000      0.00000000      0.00000000      0.00000000</v>
  </separator>
  <separator name="performance" >
   <i type="int" name="NPAR">     2</i>
   <i type="int" name="NSIM">     4</i>
   <i type="int" name="NBLK">    -1</i>
   <i type="logical" name="LPLANE"> T  </i>
   <i type="logical" name="LSCALAPACK"> T  </i>
   <i type="logical" name="LSCAAWARE"> F  </i>
   <i type="logical" name="LSCALU"> F  </i>
   <i type="logical" name="LASYNC"> F  </i>
   <i type="logical" name="LORBITALREAL"> F  </i>
  </separator>
  <separator name="miscellaneous" >
   <i type="int" name="IDIOT">     3</i>
   <i type="int" name="PHON_NSTRUCT">    -1</i>
   <i type="logical" name="LMUSIC"> F  </i>
   <v name="POMASS">     95.94000000     32.06600000</v>
   <v name="DARWINR">      0.00000000      0.00000000</v>
   <v name="DARWINV">      1.00000000      1.00000000</v>
   <i type="logical" name="LCORR"> T  </i>
  </separator>
  <i type="logical" name="GGA_COMPAT"> T  </i>
  <i type="logical" name="LBERRY"> F  </i>
  <i type="int" name="ICORELEVEL">     0</i>
  <i type="logical" name="LDAU"> F  </i>
  <i type="int" name="I_CONSTRAINED_M">     0</i>
  <separator name="electronic exchange-correlation" >
   <i type="string" name="GGA">--</i>
   <i type="int" name="VOSKOWN">     0</i>
   <i type="logical" name="LHFCALC"> F  </i>
   <i type="string" name="PRECFOCK"></i>
   <i type="logical" name="LSYMGRAD"> F  </i>
   <i type="logical" name="LHFONE"> F  </i>
   <i type="logical" name="LRHFCALC"> F  </i>
   <i type="logical" name="LTHOMAS"> F  </i>
   <i type="logical" name="LMODELHF"> F  </i>
   <i type="logical" name="LFOCKACE"> F  </i>
   <i name="ENCUT4O">     -1.00000000</i>
   <i type="int" name="EXXOEP">     0</i>
   <i type="int" name="FOURORBIT">     0</i>
   <i name="AEXX">      0.00000000</i>
   <i name="HFALPHA">      0.00000000</i>
   <i name="MCALPHA">      0.00000000</i>
   <i name="ALDAX">      1.00000000</i>
   <i name="AGGAX">      1.00000000</i>
   <i name="ALDAC">      1.00000000</i>
   <i name="AGGAC">      1.00000000</i>
   <i type="int" name="NKREDX">     1</i>
   <i type="int" name="NKREDY">     1</i>
   <i type="int" name="NKREDZ">     1</i>
   <i type="logical" name="SHIFTRED"> F  </i>
   <i type="logical" name="ODDONLY"> F  </i>
   <i type="logical" name="EVENONLY"> F  </i>
   <i type="int" name="LMAXFOCK">     0</i>
   <i type="int" name="NMAXFOCKAE">     0</i>
   <i type="logical" name="LFOCKAEDFT"> F  </i>
   <i name="HFSCREEN">      0.00000000</i>
   <i name="HFSCREENC">      0.00000000</i>
   <i type="int" name="NBANDSGWLOW">     0</i>
  </separator>
  <separator name="vdW DFT" >
   <i type="logical" name="LUSE_VDW"> F  </i>
   <i name="Zab_VDW">     -0.84910000</i>
   <i name="PARAM1">      0.12340000</i>
   <i name="PARAM2">      1.00000000</i>
   <i name="PARAM3">      0.00000000</i>
  </separator>
  <separator name="model GW" >
   <i type="int" name="MODEL_GW">     0</i>
   <i name="MODEL_EPS0">     11.38427149</i>
   <i name="MODEL_ALPHA">      1.00000000</i>
  </separator>
  <separator name="linear response parameters" >
   <i type="logical" name="LEPSILON"> F  </i>
   <i type="logical" name="LRPA"> F  </i>
   <i type="logical" name="LNABLA"> F  </i>
   <i type="logical" name="LVEL"> F  </i>
   <i type="int" name="KINTER">     0</i>
   <i name="CSHIFT">      0.10000000</i>
   <i name="OMEGAMAX">     -1.00000000</i>
   <i name="DEG_THRESHOLD">      0.00200000</i>
   <i name="RTIME">     -0.10000000</i>
   <i name="WPLASMAI">      0.00000000</i>
   <v name="DFIELD">      0.00000000      0.00000000      0.00000000</v>
   <v name="WPLASMA">      0.00000000      0.00000000      0.00000000      0.00000000      0.00000000      0.00000000      0.00000000      0.00000000      0.00000000</v>
  </separator>
  <separator name="orbital magnetization" >
   <i type="logical" name="NUCIND"> F  </i>
   <v name="MAGPOS">      0.00000000      0.00000000      0.00000000</v>
   <i type="logical" name="LNICSALL"> T  </i>
   <i type="logical" name="ORBITALMAG"> F  </i>
   <i type="logical" name="LMAGBLOCH"> F  </i>
   <i type="logical" name="LCHIMAG"> F  </i>
   <i type="logical" name="LGAUGE"> T  </i>
   <i type="int" name="MAGATOM">     0</i>
   <v name="MAGDIPOL">      0.00000000      0.00000000      0.00000000</v>
   <v name="AVECCONST">      0.00000000      0.00000000      0.00000000</v>
  </separator>
  <separator name="response functions" >
   <i type="logical" name="LFINITE_TEMPERATURE"> F  </i>
   <i type="logical" name="LADDER"> F  </i>
   <i type="logical" name="LRPAFORCE"> F  </i>
   <i type="logical" name="LFXC"> F  </i>
   <i type="logical" name="LHARTREE"> T  </i>
   <i type="int" name="IBSE">     0</i>
   <v type="int" name="KPOINT">    -1     0     0     0</v>
   <i type="logical" name="LTCTC"> F  </i>
   <i type="logical" name="LTCTE"> F  </i>
   <i type="logical" name="LTETE"> F  </i>
   <i type="logical" name="LTRIPLET"> F  </i>
   <i type="logical" name="LFXCEPS"> F  </i>
   <i type="logical" name="LFXHEG"> F  </i>
   <i type="int" name="NATURALO">     2</i>
   <i type="logical" name="LHOLEGF"> F  </i>
   <i type="logical" name="L2ORDER"> F  </i>
   <i type="logical" name="LDMP1"> F  </i>
   <i type="logical" name="LMP2LT"> F  </i>
   <i type="logical" name="LSMP2LT"> F  </i>
   <i type="logical" name="LGWLF"> F  </i>
   <i name="ENCUTGW">     -2.00000000</i>
   <i name="ENCUTGWSOFT">     -2.00000000</i>
   <i name="ENCUTLF">     -1.00000000</i>
   <i type="logical" name="LESF_SPLINES"> F  </i>
   <i type="int" name="LMAXMP2">    -1</i>
   <i name="SCISSOR">      0.00000000</i>
   <i type="int" name="NOMEGA">     0</i>
   <i type="int" name="NOMEGAR">     0</i>
   <i type="int" name="NBANDSGW">    -1</i>
   <i type="int" name="NBANDSO">    -1</i>
   <i type="int" name="NBANDSV">    -1</i>
   <i type="int" name="NELM">   100</i>
   <i type="int" name="NELMHF">     1</i>
   <i type="int" name="DIM">     3</i>
   <i type="int" name="IESPILON">     4</i>
   <i type="int" name="ANTIRES">     0</i>
   <i name="OMEGAMAX">    -30.00000000</i>
   <i name="OMEGAMIN">    -30.00000000</i>
   <i name="OMEGATL">   -200.00000000</i>
   <i type="int" name="OMEGAGRID">     0</i>
   <i name="CSHIFT">     -0.10000000</i>
   <i type="logical" name="LSELFENERGY"> F  </i>
   <i type="logical" name="LSPECTRAL"> F  </i>
   <i type="logical" name="LSPECTRALGW"> F  </i>
   <i type="logical" name="LSINGLES"> F  </i>
   <i type="logical" name="LFERMIGW"> F  </i>
   <i type="logical" name="ODDONLYGW"> F  </i>
   <i type="logical" name="EVENONLYGW"> F  </i>
   <i type="int" name="NKREDLFX">     1</i>
   <i type="int" name="NKREDLFY">     1</i>
   <i type="int" name="NKREDLFZ">     1</i>
   <i type="int" name="MAXMEM">  2800</i>
   <i type="int" name="TELESCOPE">     0</i>
   <i type="int" name="NTAUPAR">    -1</i>
   <i type="int" name="NOMEGAPAR">    -1</i>
   <i name="DAMP_NEWTON">      0.80000001</i>
   <i name="LAMBDA">      1.00000000</i>
  </separator>
  <separator name="External order field" >
   <i name="OFIELD_KAPPA">      0.00000000</i>
   <v name="OFIELD_K">      0.00000000      0.00000000      0.00000000</v>
   <i name="OFIELD_Q6_NEAR">      0.00000000</i>
   <i name="OFIELD_Q6_FAR">      0.00000000</i>
   <i name="OFIELD_A">      0.00000000</i>
  </separator>
 </parameters>
 <atominfo>
  <atoms>       9 </atoms>
  <types>       2 </types>
  <array name="atoms" >
   <dimension dim="1">ion</dimension>
   <field type="string">element</field>
   <field type="int">atomtype</field>
   <set>
    <rc><c>Mo</c><c>   1</c></rc>
    <rc><c>Mo</c><c>   1</c></rc>
    <rc><c>Mo</c><c>   1</c></rc>
    <rc><c>S </c><c>   2</c></rc>
    <rc><c>S </c><c>   2</c></rc>
    <rc><c>S </c><c>   2</c></rc>
    <rc><c>S </c><c>   2</c></rc>
    <rc><c>S </c><c>   2</c></rc>
    <rc><c>S </c><c>   2</c></rc>
   </set>
  </array>
  <array name="atomtypes" >
   <dimension dim="1">type</dimension>
   <field type="int">atomspertype</field>
   <field type="string">element</field>
   <field>mass</field>
   <field>valence</field>
   <field type="string">pseudopotential</field>
   <set>
    <rc><c>   3</c><c>Mo</c><c>     95.94000000</c><c>      6.00000000</c><c>  PAW_PBE Mo 08Apr2002                  </c></rc>
    <rc><c>   6</c><c>S </c><c>     32.06600000</c><c>      6.00000000</c><c>  PAW_PBE S 06Sep2000                   </c></rc>
   </set>
  </array>
 </atominfo>
 <structure name="initialpos" >
  <crystal>
   <varray name="basis" >
    <v>       1.59215192      -2.75768801       0.00000000 </v>
    <v>       1.59215192       2.75768801       0.00000000 </v>
    <v>       0.00000000       0.00000000      19.44629514 </v>
   </varray>
   <i name="volume">    170.76407233 </i>
   <varray name="rec_basis" >
    <v>       0.31404038      -0.18131130       0.00000000 </v>
    <v>       0.31404038       0.18131130      -0.00000000 </v>
    <v>      -0.00000000       0.00000000       0.05142368 </v>
   </varray>
  </crystal>
  <varray name="positions" >
   <v>       0.66666667       0.33333333       0.33310837 </v>
   <v>       0.33333333       0.66666667       0.66644171 </v>
   <v>       0.00000000       0.00000000       0.99977504 </v>
   <v>       0.33333333       0.66666667       0.07959689 </v>
   <v>       0.00000000       0.00000000       0.25329574 </v>
   <v>       0.00000000       0.00000000       0.41293022 </v>
   <v>       0.66666667       0.33333333       0.58662907 </v>
   <v>       0.66666667       0.33333333       0.74626355 </v>
   <v>       0.33333333       0.66666667       0.91996241 </v>
  </varray>
 </structure>
 <calculation>
  <scstep>
   <time name="dav">    5.18    5.23</time>
   <time name="total">    5.55    5.60</time>
   <energy>
    <i name="alphaZ">    156.26454146 </i>
    <i name="ewald">  -2181.61153230 </i>
    <i name="hartreedc">   -438.70924927 </i>
    <i name="XCdc">   -107.58008722 </i>
    <i name="pawpsdc">   2100.93528082 </i>
    <i name="pawaedc">  -1868.23984205 </i>
    <i name="eentropy">     -0.00017920 </i>
    <i name="bandstr">    315.69997117 </i>
    <i name="atom">   2313.47388723 </i>
    <i name="e_fr_energy">    290.23279065 </i>
    <i name="e_wo_entrp">    290.23296985 </i>
    <i name="e_0_energy">    290.23288025 </i>
   </energy>
  </scstep>
  <scstep>
   <time name="dav">    6.18    6.24</time>
   <time name="total">    6.18    6.24</time>
   <energy>
    <i name="e_fr_energy">    -42.35886909 </i>
    <i name="e_wo_entrp">    -42.35886909 </i>
    <i name="e_0_energy">    -42.35886909 </i>
   </energy>
  </scstep>
  <scstep>
   <time name="dav">    5.86    5.92</time>
   <time name="total">    5.86    5.92</time>
   <energy>
    <i name="e_fr_energy">    -67.43062308 </i>
    <i name="e_wo_entrp">    -67.43062308 </i>
    <i name="e_0_energy">    -67.43062308 </i>
   </energy>
  </scstep>
  <scstep>
   <time name="dav">    6.45    6.51</time>
   <time name="total">    6.45    6.51</time>
   <energy>
    <i name="e_fr_energy">    -68.08970723 </i>
    <i name="e_wo_entrp">    -68.08970723 </i>
    <i name="e_0_energy">    -68.08970723 </i>
   </energy>
  </scstep>
  <scstep>
   <time name="dav">    6.12    6.18</time>
   <time name="total">    6.63    6.69</time>
   <energy>
    <i name="e_fr_energy">    -68.10521184 </i>
    <i name="e_wo_entrp">    -68.10521184 </i>
    <i name="e_0_energy">    -68.10521184 </i>
   </energy>
  </scstep>
  <scstep>
   <time name="diag">    1.32    1.34</time>
   <time name="diis">    4.14    4.16</time>
   <time name="orth">    0.07    0.07</time>
   <time name="total">    6.37    6.42</time>
   <energy>
    <i name="e_fr_energy">    -58.20802191 </i>
    <i name="e_wo_entrp">    -58.20802191 </i>
    <i name="e_0_energy">    -58.20802191 </i>
   </energy>
  </scstep>
  <scstep>
   <time name="diag">    1.32    1.33</time>
   <time name="diis">    4.16    4.18</time>
   <time name="orth">    0.07    0.07</time>
   <time name="total">    6.40    6.44</time>
   <energy>
    <i name="e_fr_energy">    -57.06948152 </i>
    <i name="e_wo_entrp">    -57.06948152 </i>
    <i name="e_0_energy">    -57.06948152 </i>
   </energy>
  </scstep>
  <scstep>
   <time name="diag">    1.32    1.33</time>
   <time name="diis">    4.22    4.24</time>
   <time name="orth">    0.07    0.08</time>
   <time name="total">    6.46    6.50</time>
   <energy>
    <i name="e_fr_energy">    -57.31041897 </i>
    <i name="e_wo_entrp">    -57.31041897 </i>
    <i name="e_0_energy">    -57.31041897 </i>
   </energy>
  </scstep>
  <scstep>
   <time name="diag">    1.32    1.33</time>
   <time name="diis">    4.28    4.29</time>
   <time name="orth">    0.07    0.08</time>
   <time name="total">    6.52    6.55</time>
   <energy>
    <i name="e_fr_energy">    -58.87063290 </i>
    <i name="e_wo_entrp">    -58.87063290 </i>
    <i name="e_0_energy">    -58.87063290 </i>
   </energy>
  </scstep>
  <scstep>
   <time name="diag">    1.32    1.33</time>
   <time name="diis">    4.50    4.52</time>
   <time name="orth">    0.07    0.08</time>
   <time name="total">    6.74    6.78</time>
   <energy>
    <i name="e_fr_energy">    -61.80004392 </i>
    <i name="e_wo_entrp">    -61.80004392 </i>
    <i name="e_0_energy">    -61.80004392 </i>
   </energy>
  </scstep>
  <scstep>
   <time name="diag">    1.30    1.31</time>
   <time name="diis">    4.62    4.64</time>
   <time name="orth">    0.07    0.08</time>
   <time name="total">    6.84    6.88</time>
   <energy>
    <i name="e_fr_energy">    -63.41539143 </i>
    <i name="e_wo_entrp">    -63.41539143 </i>
    <i name="e_0_energy">    -63.41539143 </i>
   </energy>
  </scstep>
  <scstep>
   <time name="diag">    1.30    1.31</time>
   <time name="diis">    4.86    4.88</time>
   <time name="orth">    0.07    0.08</time>
   <time name="total">    7.09    7.13</time>
   <energy>
    <i name="e_fr_energy">    -64.81780536 </i>
    <i name="e_wo_entrp">    -64.81780536 </i>
    <i name="e_0_energy">    -64.81780536 </i>
   </energy>
  </scstep>
  <scstep>
   <time name="diag">    1.30    1.31</time>
   <time name="diis">    4.71    4.73</time>
   <time name="orth">    0.07    0.08</time>
   <time name="total">    6.93    6.98</time>
   <energy>
    <i name="e_fr_energy">    -65.34136355 </i>
    <i name="e_wo_entrp">    -65.34136355 </i>
    <i name="e_0_energy">    -65.34136355 </i>
   </energy>
  </scstep>
  <scstep>
   <time name="diag">    1.30    1.31</time>
   <time name="diis">    4.12    4.13</time>
   <time name="orth">    0.07    0.07</time>
   <time name="total">    6.33    6.37</time>
   <energy>
    <i name="e_fr_energy">    -65.34447638 </i>
    <i name="e_wo_entrp">    -65.34447638 </i>
    <i name="e_0_energy">    -65.34447638 </i>
   </energy>
  </scstep>
  <scstep>
   <time name="diag">    1.30    1.31</time>
   <time name="diis">    4.38    4.40</time>
   <time name="orth">    0.07    0.07</time>
   <time name="total">    6.60    6.64</time>
   <energy>
    <i name="e_fr_energy">    -65.34780222 </i>
    <i name="e_wo_entrp">    -65.34780222 </i>
    <i name="e_0_energy">    -65.34780222 </i>
   </energy>
  </scstep>
  <scstep>
   <time name="diag">    1.31    1.32</time>
   <time name="diis">    4.14    4.16</time>
   <time name="orth">    0.07    0.08</time>
   <time name="total">    6.37    6.41</time>
   <energy>
    <i name="e_fr_energy">    -65.35145798 </i>
    <i name="e_wo_entrp">    -65.35145798 </i>
    <i name="e_0_energy">    -65.35145798 </i>
   </energy>
  </scstep>
  <scstep>
   <time name="diag">    1.31    1.32</time>
   <time name="diis">    4.16    4.18</time>
   <time name="orth">    0.07    0.07</time>
   <time name="total">    6.38    6.42</time>
   <energy>
    <i name="e_fr_energy">    -65.35197097 </i>
    <i name="e_wo_entrp">    -65.35197097 </i>
    <i name="e_0_energy">    -65.35197097 </i>
   </energy>
  </scstep>
  <scstep>
   <time name="diag">    1.31    1.32</time>
   <time name="diis">    4.56    4.57</time>
   <time name="orth">    0.07    0.07</time>
   <time name="total">    6.76    6.81</time>
   <energy>
    <i name="e_fr_energy">    -65.35216871 </i>
    <i name="e_wo_entrp">    -65.35216871 </i>
    <i name="e_0_energy">    -65.35216871 </i>
   </energy>
  </scstep>
  <scstep>
   <time name="diag">    1.31    1.32</time>
   <time name="diis">    4.34    4.36</time>
   <time name="orth">    0.07    0.07</time>
   <time name="total">    6.55    6.59</time>
   <energy>
    <i name="e_fr_energy">    -65.35224302 </i>
    <i name="e_wo_entrp">    -65.35224302 </i>
    <i name="e_0_energy">    -65.35224302 </i>
   </energy>
  </scstep>
  <scstep>
   <time name="diag">    1.31    1.32</time>
   <time name="diis">    4.18    4.20</time>
   <time name="orth">    0.07    0.08</time>
   <time name="total">    6.39    6.43</time>
   <energy>
    <i name="e_fr_energy">    -65.35232401 </i>
    <i name="e_wo_entrp">    -65.35232401 </i>
    <i name="e_0_energy">    -65.35232401 </i>
   </energy>
  </scstep>
  <scstep>
   <time name="diag">    1.31    1.32</time>
   <time name="diis">    4.43    4.45</time>
   <time name="orth">    0.07    0.08</time>
   <time name="total">    6.64    6.68</time>
   <energy>
    <i name="e_fr_energy">    -65.35233002 </i>
    <i name="e_wo_entrp">    -65.35233002 </i>
    <i name="e_0_energy">    -65.35233002 </i>
   </energy>
  </scstep>
  <scstep>
   <time name="diag">    1.31    1.32</time>
   <time name="diis">    4.20    4.22</time>
   <time name="orth">    0.07    0.08</time>
   <time name="total">    6.41    6.45</time>
   <energy>
    <i name="e_fr_energy">    -65.35233204 </i>
    <i name="e_wo_entrp">    -65.35233204 </i>
    <i name="e_0_energy">    -65.35233204 </i>
   </energy>
  </scstep>
  <scstep>
   <time name="diag">    1.31    1.32</time>
   <time name="diis">    4.45    4.47</time>
   <time name="orth">    0.07    0.08</time>
   <time name="total">    6.66    6.70</time>
   <energy>
    <i name="e_fr_energy">    -65.35233215 </i>
    <i name="e_wo_entrp">    -65.35233215 </i>
    <i name="e_0_energy">    -65.35233215 </i>
   </energy>
  </scstep>
  <scstep>
   <time name="diag">    1.31    1.32</time>
   <time name="diis">    4.25    4.27</time>
   <time name="orth">    0.07    0.07</time>
   <time name="total">    6.46    6.50</time>
   <energy>
    <i name="e_fr_energy">    -65.35233230 </i>
    <i name="e_wo_entrp">    -65.35233230 </i>
    <i name="e_0_energy">    -65.35233230 </i>
   </energy>
  </scstep>
  <scstep>
   <time name="diag">    1.31    1.32</time>
   <time name="diis">    4.01    4.03</time>
   <time name="orth">    0.07    0.08</time>
   <time name="total">    5.72    5.75</time>
   <energy>
    <i name="alphaZ">    156.26454146 </i>
    <i name="ewald">  -2181.61153230 </i>
    <i name="hartreedc">   -445.80350316 </i>
    <i name="XCdc">   -105.15055002 </i>
    <i name="pawpsdc">   4885.90143733 </i>
    <i name="pawaedc">  -4658.61386462 </i>
    <i name="eentropy">     -0.00000000 </i>
    <i name="bandstr">    -29.81274814 </i>
    <i name="atom">   2313.47388723 </i>
    <i name="e_fr_energy">    -65.35233223 </i>
    <i name="e_wo_entrp">    -65.35233223 </i>
    <i name="e_0_energy">    -65.35233223 </i>
   </energy>
  </scstep>
  <structure>
   <crystal>
    <varray name="basis" >
     <v>       1.59215192      -2.75768801       0.00000000 </v>
     <v>       1.59215192       2.75768801       0.00000000 </v>
     <v>       0.00000000       0.00000000      19.44629514 </v>
    </varray>
    <i name="volume">    170.76407233 </i>
    <varray name="rec_basis" >
     <v>       0.31404038      -0.18131130       0.00000000 </v>
     <v>       0.31404038       0.18131130      -0.00000000 </v>
     <v>      -0.00000000       0.00000000       0.05142368 </v>
    </varray>
   </crystal>
   <varray name="positions" >
    <v>       0.66666667       0.33333333       0.33310837 </v>
    <v>       0.33333333       0.66666667       0.66644171 </v>
    <v>       0.00000000       0.00000000       0.99977504 </v>
    <v>       0.33333333       0.66666667       0.07959689 </v>
    <v>       0.00000000       0.00000000       0.25329574 </v>
    <v>       0.00000000       0.00000000       0.41293022 </v>
    <v>       0.66666667       0.33333333       0.58662907 </v>
    <v>       0.66666667       0.33333333       0.74626355 </v>
    <v>       0.33333333       0.66666667       0.91996241 </v>
   </varray>
  </structure>
  <varray name="forces" >
   <v>      -0.00000000      -0.00000000      -0.00217135 </v>
   <v>      -0.00000000      -0.00000000      -0.00217135 </v>
   <v>      -0.00000000       0.00000000      -0.00217135 </v>
   <v>       0.00000000      -0.00000000       0.16408474 </v>
   <v>      -0.00000000       0.00000000      -0.16191339 </v>
   <v>      -0.00000000       0.00000000       0.16408474 </v>
   <v>       0.00000000      -0.00000000      -0.16191339 </v>
   <v>      -0.00000000       0.00000000       0.16408474 </v>
   <v>      -0.00000000       0.00000000      -0.16191339 </v>
  </varray>
  <varray name="stress" >
   <v>     -27.42399658       0.00000000       0.00000000 </v>
   <v>       0.00000000     -27.42399658       0.00000000 </v>
   <v>       0.00000000      -0.00000000      -9.12930660 </v>
  </varray>
  <energy>
   <i name="e_fr_energy">    -68.93976118 </i>
   <i name="e_wo_entrp">    -68.93976118 </i>
   <i name="e_0_energy">    -68.93976118 </i>
  </energy>
  <time name="totalsc">  167.35  168.75</time>
 </calculation>
 <calculation>
  <scstep>
   <time name="dav">    5.67    5.72</time>
   <time name="total">    6.49    6.55</time>
   <energy>
    <i name="alphaZ">    156.26454146 </i>
    <i name="ewald">  -2190.17856427 </i>
    <i name="hartreedc">   -438.21889989 </i>
    <i name="XCdc">   -105.25231853 </i>
    <i name="pawpsdc">   4885.83515396 </i>
    <i name="pawaedc">  -4658.54753122 </i>
    <i name="eentropy">     -0.00000000 </i>
    <i name="bandstr">    -28.73130771 </i>
    <i name="atom">   2313.47388723 </i>
    <i name="e_fr_energy">    -65.35503896 </i>
    <i name="e_wo_entrp">    -65.35503896 </i>
    <i name="e_0_energy">    -65.35503896 </i>
   </energy>
  </scstep>
  <scstep>
   <time name="diag">    1.31    1.32</time>
   <time name="diis">    4.12    4.13</time>
   <time name="orth">    0.07    0.08</time>
   <time name="total">    6.32    6.36</time>
   <energy>
    <i name="e_fr_energy">    -65.35635849 </i>
    <i name="e_wo_entrp">    -65.35635849 </i>
    <i name="e_0_energy">    -65.35635849 </i>
   </energy>
  </scstep>
  <scstep>
   <time name="diag">    1.31    1.32</time>
   <time name="diis">    4.13    4.15</time>
   <time name="orth">    0.07    0.08</time>
   <time name="total">    6.34    6.38</time>
   <energy>
    <i name="e_fr_energy">    -65.35664476 </i>
    <i name="e_wo_entrp">    -65.35664476 </i>
    <i name="e_0_energy">    -65.35664476 </i>
   </energy>
  </scstep>
  <scstep>
   <time name="diag">    1.31    1.32</time>
   <time name="diis">    4.13    4.15</time>
   <time name="orth">    0.07    0.07</time>
   <time name="total">    6.34    6.38</time>
   <energy>
    <i name="e_fr_energy">    -65.35671034 </i>
    <i name="e_wo_entrp">    -65.35671034 </i>
    <i name="e_0_energy">    -65.35671034 </i>
   </energy>
  </scstep>
  <scstep>
   <time name="diag">    1.31    1.32</time>
   <time name="diis">    4.13    4.14</time>
   <time name="orth">    0.07    0.08</time>
   <time name="total">    6.33    6.37</time>
   <energy>
    <i name="e_fr_energy">    -65.35664154 </i>
    <i name="e_wo_entrp">    -65.35664154 </i>
    <i name="e_0_energy">    -65.35664154 </i>
   </energy>
  </scstep>
  <scstep>
   <time name="diag">    1.31    1.32</time>
   <time name="diis">    4.30    4.32</time>
   <time name="orth">    0.07    0.08</time>
   <time name="total">    6.51    6.55</time>
   <energy>
    <i name="e_fr_energy">    -65.35664245 </i>
    <i name="e_wo_entrp">    -65.35664245 </i>
    <i name="e_0_energy">    -65.35664245 </i>
   </energy>
  </scstep>
  <scstep>
   <time name="diag">    1.30    1.31</time>
   <time name="diis">    4.32    4.34</time>
   <time name="orth">    0.07    0.08</time>
   <time name="total">    6.52    6.56</time>
   <energy>
    <i name="e_fr_energy">    -65.35664482 </i>
    <i name="e_wo_entrp">    -65.35664482 </i>
    <i name="e_0_energy">    -65.35664482 </i>
   </energy>
  </scstep>
  <scstep>
   <time name="diag">    1.30    1.32</time>
   <time name="diis">    4.18    4.20</time>
   <time name="orth">    0.07    0.08</time>
   <time name="total">    6.39    6.43</time>
   <energy>
    <i name="e_fr_energy">    -65.35664340 </i>
    <i name="e_wo_entrp">    -65.35664340 </i>
    <i name="e_0_energy">    -65.35664340 </i>
   </energy>
  </scstep>
  <scstep>
   <time name="diag">    1.30    1.32</time>
   <time name="diis">    4.31    4.33</time>
   <time name="orth">    0.07    0.08</time>
   <time name="total">    6.52    6.56</time>
   <energy>
    <i name="e_fr_energy">    -65.35664375 </i>
    <i name="e_wo_entrp">    -65.35664375 </i>
    <i name="e_0_energy">    -65.35664375 </i>
   </energy>
  </scstep>
  <scstep>
   <time name="diag">    1.30    1.31</time>
   <time name="diis">    4.03    4.05</time>
   <time name="orth">    0.07    0.08</time>
   <time name="total">    6.23    6.27</time>
   <energy>
    <i name="e_fr_energy">    -65.35664405 </i>
    <i name="e_wo_entrp">    -65.35664405 </i>
    <i name="e_0_energy">    -65.35664405 </i>
   </energy>
  </scstep>
  <scstep>
   <time name="diag">    1.31    1.32</time>
   <time name="diis">    3.60    3.61</time>
   <time name="orth">    0.07    0.08</time>
   <time name="total">    5.31    5.34</time>
   <energy>
    <i name="alphaZ">    156.26454146 </i>
    <i name="ewald">  -2190.17856427 </i>
    <i name="hartreedc">   -438.10106988 </i>
    <i name="XCdc">   -105.25230161 </i>
    <i name="pawpsdc">   4848.16033410 </i>
    <i name="pawaedc">  -4620.80599598 </i>
    <i name="eentropy">     -0.00000000 </i>
    <i name="bandstr">    -28.91747518 </i>
    <i name="atom">   2313.47388723 </i>
    <i name="e_fr_energy">    -65.35664412 </i>
    <i name="e_wo_entrp">    -65.35664412 </i>
    <i name="e_0_energy">    -65.35664412 </i>
   </energy>
  </scstep>
  <structure>
   <crystal>
    <varray name="basis" >
     <v>       1.59215192      -2.75768801       0.00000000 </v>
     <v>       1.59215192       2.75768801       0.00000000 </v>
     <v>       0.00000000       0.00000000      19.44629514 </v>
    </varray>
    <i name="volume">    170.76407233 </i>
    <varray name="rec_basis" >
     <v>       0.31404038      -0.18131130       0.00000000 </v>
     <v>       0.31404038       0.18131130      -0.00000000 </v>
     <v>      -0.00000000       0.00000000       0.05142368 </v>
    </varray>
   </crystal>
   <varray name="positions" >
    <v>       0.66666667       0.33333333       0.33310299 </v>
    <v>       0.33333333       0.66666667       0.66643632 </v>
    <v>      -0.00000000       0.00000000       0.99976965 </v>
    <v>       0.33333333       0.66666667       0.08000395 </v>
    <v>      -0.00000000      -0.00000000       0.25289406 </v>
    <v>      -0.00000000       0.00000000       0.41333728 </v>
    <v>       0.66666667       0.33333333       0.58622740 </v>
    <v>       0.66666667       0.33333333       0.74667062 </v>
    <v>       0.33333333       0.66666667       0.91956073 </v>
   </varray>
  </structure>
  <varray name="forces" >
   <v>       0.00000000      -0.00000000       0.00211785 </v>
   <v>      -0.00000000       0.00000000       0.00211785 </v>
   <v>      -0.00000000      -0.00000000       0.00211785 </v>
   <v>      -0.00000000       0.00000000       0.00790836 </v>
   <v>      -0.00000000      -0.00000000      -0.01002622 </v>
   <v>       0.00000000       0.00000000       0.00790836 </v>
   <v>       0.00000000      -0.00000000      -0.01002622 </v>
   <v>       0.00000000       0.00000000       0.00790836 </v>
   <v>      -0.00000000       0.00000000      -0.01002622 </v>
  </varray>
  <varray name="stress" >
   <v>     -32.01511746       0.00000000       0.00000000 </v>
   <v>       0.00000000     -32.01511746       0.00000000 </v>
   <v>       0.00000000       0.00000000     -22.37654692 </v>
  </varray>
  <energy>
   <i name="e_fr_energy">    -68.94375846 </i>
   <i name="e_wo_entrp">    -68.94375846 </i>
   <i name="e_0_energy">    -68.94375846 </i>
  </energy>
  <time name="totalsc">   74.43   74.95</time>
 </calculation>
 <calculation>
  <scstep>
   <time name="dav">    6.28    6.33</time>
   <time name="total">    7.10    7.16</time>
   <energy>
    <i name="alphaZ">    156.26454146 </i>
    <i name="ewald">  -2190.67382923 </i>
    <i name="hartreedc">   -437.65645527 </i>
    <i name="XCdc">   -105.25844396 </i>
    <i name="pawpsdc">   4847.98805719 </i>
    <i name="pawaedc">  -4620.63338960 </i>
    <i name="eentropy">     -0.00000000 </i>
    <i name="bandstr">    -28.86103713 </i>
    <i name="atom">   2313.47388723 </i>
    <i name="e_fr_energy">    -65.35666931 </i>
    <i name="e_wo_entrp">    -65.35666931 </i>
    <i name="e_0_energy">    -65.35666931 </i>
   </energy>
  </scstep>
  <scstep>
   <time name="diag">    1.31    1.32</time>
   <time name="diis">    4.19    4.21</time>
   <time name="orth">    0.07    0.08</time>
   <time name="total">    6.40    6.44</time>
   <energy>
    <i name="e_fr_energy">    -65.35667231 </i>
    <i name="e_wo_entrp">    -65.35667231 </i>
    <i name="e_0_energy">    -65.35667231 </i>
   </energy>
  </scstep>
  <scstep>
   <time name="diag">    1.31    1.32</time>
   <time name="diis">    4.23    4.24</time>
   <time name="orth">    0.07    0.08</time>
   <time name="total">    6.43    6.47</time>
   <energy>
    <i name="e_fr_energy">    -65.35667262 </i>
    <i name="e_wo_entrp">    -65.35667262 </i>
    <i name="e_0_energy">    -65.35667262 </i>
   </energy>
  </scstep>
  <scstep>
   <time name="diag">    1.31    1.32</time>
   <time name="diis">    4.15    4.17</time>
   <time name="orth">    0.07    0.08</time>
   <time name="total">    6.36    6.40</time>
   <energy>
    <i name="e_fr_energy">    -65.35667249 </i>
    <i name="e_wo_entrp">    -65.35667249 </i>
    <i name="e_0_energy">    -65.35667249 </i>
   </energy>
  </scstep>
  <scstep>
   <time name="diag">    1.31    1.32</time>
   <time name="diis">    4.09    4.11</time>
   <time name="orth">    0.07    0.08</time>
   <time name="total">    6.30    6.34</time>
   <energy>
    <i name="e_fr_energy">    -65.35667193 </i>
    <i name="e_wo_entrp">    -65.35667193 </i>
    <i name="e_0_energy">    -65.35667193 </i>
   </energy>
  </scstep>
  <scstep>
   <time name="diag">    1.31    1.32</time>
   <time name="diis">    2.91    2.92</time>
   <time name="orth">    0.07    0.07</time>
   <time name="total">    4.62    4.65</time>
   <energy>
    <i name="alphaZ">    156.26454146 </i>
    <i name="ewald">  -2190.67382923 </i>
    <i name="hartreedc">   -437.64672011 </i>
    <i name="XCdc">   -105.25862273 </i>
    <i name="pawpsdc">   4845.51736685 </i>
    <i name="pawaedc">  -4618.15873424 </i>
    <i name="eentropy">     -0.00000000 </i>
    <i name="bandstr">    -28.87456110 </i>
    <i name="atom">   2313.47388723 </i>
    <i name="e_fr_energy">    -65.35667186 </i>
    <i name="e_wo_entrp">    -65.35667186 </i>
    <i name="e_0_energy">    -65.35667186 </i>
   </energy>
  </scstep>
  <structure>
   <crystal>
    <varray name="basis" >
     <v>       1.59215192      -2.75768801       0.00000000 </v>
     <v>       1.59215192       2.75768801       0.00000000 </v>
     <v>       0.00000000       0.00000000      19.44629514 </v>
    </varray>
    <i name="volume">    170.76407233 </i>
    <varray name="rec_basis" >
     <v>       0.31404038      -0.18131130       0.00000000 </v>
     <v>       0.31404038       0.18131130      -0.00000000 </v>
     <v>      -0.00000000       0.00000000       0.05142368 </v>
    </varray>
   </crystal>
   <varray name="positions" >
    <v>       0.66666667       0.33333333       0.33310854 </v>
    <v>       0.33333333       0.66666667       0.66644188 </v>
    <v>      -0.00000000      -0.00000000       0.99977521 </v>
    <v>       0.33333333       0.66666667       0.08002471 </v>
    <v>      -0.00000000      -0.00000000       0.25286775 </v>
    <v>       0.00000000       0.00000000       0.41335804 </v>
    <v>       0.66666667       0.33333333       0.58620108 </v>
    <v>       0.66666667       0.33333333       0.74669137 </v>
    <v>       0.33333333       0.66666667       0.91953442 </v>
   </varray>
  </structure>
  <varray name="forces" >
   <v>      -0.00000000       0.00000000      -0.00281035 </v>
   <v>      -0.00000000       0.00000000      -0.00281035 </v>
   <v>       0.00000000       0.00000000      -0.00281035 </v>
   <v>      -0.00000000      -0.00000000       0.00183837 </v>
   <v>       0.00000000      -0.00000000       0.00097199 </v>
   <v>      -0.00000000       0.00000000       0.00183837 </v>
   <v>       0.00000000      -0.00000000       0.00097199 </v>
   <v>      -0.00000000      -0.00000000       0.00183837 </v>
   <v>       0.00000000      -0.00000000       0.00097199 </v>
  </varray>
  <varray name="stress" >
   <v>     -32.30825181       0.00000000       0.00000000 </v>
   <v>       0.00000000     -32.30825181      -0.00000000 </v>
   <v>       0.00000000       0.00000000     -22.98902503 </v>
  </varray>
  <energy>
   <i name="e_fr_energy">    -68.94376829 </i>
   <i name="e_wo_entrp">    -68.94376829 </i>
   <i name="e_0_energy">    -68.94376829 </i>
  </energy>
  <time name="totalsc">   42.17   43.10</time>
  <eigenvalues>
   <array>
    <dimension dim="1">band</dimension>
    <dimension dim="2">kpoint</dimension>
    <dimension dim="3">spin</dimension>
    <field>eigene</field>
    <field>occ</field>
    <set>
     <set comment="spin 1">
      <set comment="kpoint 1">
       <r>   -9.4974    1.0000 </r>
       <r>   -9.3999    1.0000 </r>
       <r>   -9.3999    1.0000 </r>
       <r>   -8.3427    1.0000 </r>
       <r>   -8.3427    1.0000 </r>
       <r>   -8.1824    1.0000 </r>
       <r>   -1.2559    1.0000 </r>
       <r>   -0.8030    1.0000 </r>
       <r>   -0.8030    1.0000 </r>
       <r>    1.5038    1.0000 </r>
       <r>    1.5038    1.0000 </r>
       <r>    1.5124    1.0000 </r>
       <r>    1.8681    1.0000 </r>
       <r>    1.8681    1.0000 </r>
       <r>    2.0427    1.0000 </r>
       <r>    2.0427    1.0000 </r>
       <r>    2.0491    1.0000 </r>
       <r>    2.3625    1.0000 </r>
       <r>    2.6762    1.0000 </r>
       <r>    2.6848    1.0000 </r>
       <r>    2.6848    1.0000 </r>
       <r>    3.2537    1.0000 </r>
       <r>    3.2537    1.0000 </r>
       <r>    3.9408    1.0000 </r>
       <r>    4.0893    1.0000 </r>
       <r>    4.6673    1.0000 </r>
       <r>    4.6673    1.0000 </r>
       <r>    7.0199    0.0000 </r>
       <r>    7.0393    0.0000 </r>
       <r>    7.0393    0.0000 </r>
       <r>    7.0963    0.0000 </r>
       <r>    7.2035    0.0000 </r>
       <r>    7.2035    0.0000 </r>
       <r>    7.2985    0.0000 </r>
       <r>    7.2985    0.0000 </r>
       <r>    7.3358    0.0000 </r>
       <r>    7.5453    0.0000 </r>
       <r>    7.5751    0.0000 </r>
      </set>
      <set comment="kpoint 2">
       <r>   -8.9975    1.0000 </r>
       <r>   -8.9081    1.0000 </r>
       <r>   -8.9069    1.0000 </r>
       <r>   -8.0999    1.0000 </r>
       <r>   -8.0979    1.0000 </r>
       <r>   -7.9668    1.0000 </r>
       <r>   -0.8026    1.0000 </r>
       <r>   -0.4225    1.0000 </r>
       <r>   -0.4216    1.0000 </r>
       <r>    0.7540    1.0000 </r>
       <r>    0.7700    1.0000 </r>
       <r>    0.7801    1.0000 </r>
       <r>    1.1209    1.0000 </r>
       <r>    1.1221    1.0000 </r>
       <r>    1.3701    1.0000 </r>
       <r>    1.9509    1.0000 </r>
       <r>    1.9600    1.0000 </r>
       <r>    1.9941    1.0000 </r>
       <r>    2.5141    1.0000 </r>
       <r>    2.5283    1.0000 </r>
       <r>    2.5344    1.0000 </r>
       <r>    3.2294    1.0000 </r>
       <r>    3.2820    1.0000 </r>
       <r>    3.7211    1.0000 </r>
       <r>    3.8281    1.0000 </r>
       <r>    3.9606    1.0000 </r>
       <r>    3.9828    1.0000 </r>
       <r>    6.3696    0.0000 </r>
       <r>    6.7187    0.0000 </r>
       <r>    6.7251    0.0000 </r>
       <r>    6.9117    0.0000 </r>
       <r>    6.9287    0.0000 </r>
       <r>    6.9375    0.0000 </r>
       <r>    7.2413    0.0000 </r>
       <r>    7.2468    0.0000 </r>
       <r>    7.3500    0.0000 </r>
       <r>    8.2014    0.0000 </r>
       <r>    8.2129    0.0000 </r>
      </set>
      <set comment="kpoint 3">
       <r>   -8.3011    1.0000 </r>
       <r>   -8.2363    1.0000 </r>
       <r>   -8.2283    1.0000 </r>
       <r>   -7.7744    1.0000 </r>
       <r>   -7.7634    1.0000 </r>
       <r>   -7.6826    1.0000 </r>
       <r>   -0.8704    1.0000 </r>
       <r>   -0.7387    1.0000 </r>
       <r>   -0.7280    1.0000 </r>
       <r>    0.1438    1.0000 </r>
       <r>    0.1668    1.0000 </r>
       <r>    0.2993    1.0000 </r>
       <r>    0.5051    1.0000 </r>
       <r>    0.6135    1.0000 </r>
       <r>    0.7178    1.0000 </r>
       <r>    1.4669    1.0000 </r>
       <r>    1.4798    1.0000 </r>
       <r>    1.5266    1.0000 </r>
       <r>    2.7475    1.0000 </r>
       <r>    2.8817    1.0000 </r>
       <r>    2.9333    1.0000 </r>
       <r>    2.9388    1.0000 </r>
       <r>    2.9841    1.0000 </r>
       <r>    3.1193    1.0000 </r>
       <r>    3.5963    1.0000 </r>
       <r>    3.6344    1.0000 </r>
       <r>    3.6530    1.0000 </r>
       <r>    6.4496    0.0000 </r>
       <r>    6.6226    0.0000 </r>
       <r>    6.6719    0.0000 </r>
       <r>    6.8268    0.0000 </r>
       <r>    6.9781    0.0000 </r>
       <r>    6.9880    0.0000 </r>
       <r>    7.8013    0.0000 </r>
       <r>    7.8062    0.0000 </r>
       <r>    8.0556    0.0000 </r>
       <r>    8.6411    0.0000 </r>
       <r>    8.6569    0.0000 </r>
      </set>
      <set comment="kpoint 4">
       <r>   -7.8134    1.0000 </r>
       <r>   -7.7985    1.0000 </r>
       <r>   -7.7687    1.0000 </r>
       <r>   -7.5671    1.0000 </r>
       <r>   -7.5321    1.0000 </r>
       <r>   -7.5156    1.0000 </r>
       <r>   -1.2287    1.0000 </r>
       <r>   -1.2097    1.0000 </r>
       <r>   -1.1606    1.0000 </r>
       <r>   -0.3829    1.0000 </r>
       <r>   -0.3200    1.0000 </r>
       <r>   -0.3002    1.0000 </r>
       <r>    0.3807    1.0000 </r>
       <r>    0.3920    1.0000 </r>
       <r>    0.5428    1.0000 </r>
       <r>    1.3106    1.0000 </r>
       <r>    1.3186    1.0000 </r>
       <r>    1.3249    1.0000 </r>
       <r>    2.4635    1.0000 </r>
       <r>    2.6928    1.0000 </r>
       <r>    2.7389    1.0000 </r>
       <r>    3.1381    1.0000 </r>
       <r>    3.1920    1.0000 </r>
       <r>    3.2139    1.0000 </r>
       <r>    3.9215    1.0000 </r>
       <r>    3.9453    1.0000 </r>
       <r>    3.9965    1.0000 </r>
       <r>    6.6766    0.0000 </r>
       <r>    6.6967    0.0000 </r>
       <r>    6.7016    0.0000 </r>
       <r>    7.1351    0.0000 </r>
       <r>    7.2065    0.0000 </r>
       <r>    7.2310    0.0000 </r>
       <r>    8.2788    0.0000 </r>
       <r>    8.3564    0.0000 </r>
       <r>    8.4883    0.0000 </r>
       <r>    8.6216    0.0000 </r>
       <r>    8.6865    0.0000 </r>
      </set>
      <set comment="kpoint 5">
       <r>   -7.9982    1.0000 </r>
       <r>   -7.9555    1.0000 </r>
       <r>   -7.9389    1.0000 </r>
       <r>   -7.6416    1.0000 </r>
       <r>   -7.6208    1.0000 </r>
       <r>   -7.5713    1.0000 </r>
       <r>   -1.0908    1.0000 </r>
       <r>   -1.0274    1.0000 </r>
       <r>   -0.9979    1.0000 </r>
       <r>   -0.1934    1.0000 </r>
       <r>   -0.1490    1.0000 </r>
       <r>   -0.0836    1.0000 </r>
       <r>    0.4447    1.0000 </r>
       <r>    0.4926    1.0000 </r>
       <r>    0.6302    1.0000 </r>
       <r>    1.3549    1.0000 </r>
       <r>    1.3681    1.0000 </r>
       <r>    1.3957    1.0000 </r>
       <r>    2.5632    1.0000 </r>
       <r>    2.7457    1.0000 </r>
       <r>    2.8811    1.0000 </r>
       <r>    3.0557    1.0000 </r>
       <r>    3.0772    1.0000 </r>
       <r>    3.1269    1.0000 </r>
       <r>    3.7571    1.0000 </r>
       <r>    3.8012    1.0000 </r>
       <r>    3.8263    1.0000 </r>
       <r>    6.5991    0.0000 </r>
       <r>    6.6735    0.0000 </r>
       <r>    6.7004    0.0000 </r>
       <r>    6.9470    0.0000 </r>
       <r>    7.1048    0.0000 </r>
       <r>    7.1077    0.0000 </r>
       <r>    8.0932    0.0000 </r>
       <r>    8.1079    0.0000 </r>
       <r>    8.3326    0.0000 </r>
       <r>    8.6852    0.0000 </r>
       <r>    8.7130    0.0000 </r>
      </set>
      <set comment="kpoint 6">
       <r>   -8.6540    1.0000 </r>
       <r>   -8.5739    1.0000 </r>
       <r>   -8.5705    1.0000 </r>
       <r>   -7.9369    1.0000 </r>
       <r>   -7.9317    1.0000 </r>
       <r>   -7.8233    1.0000 </r>
       <r>   -0.7202    1.0000 </r>
       <r>   -0.4684    1.0000 </r>
       <r>   -0.4674    1.0000 </r>
       <r>    0.4986    1.0000 </r>
       <r>    0.5179    1.0000 </r>
       <r>    0.5465    1.0000 </r>
       <r>    0.7622    1.0000 </r>
       <r>    0.7962    1.0000 </r>
       <r>    0.8166    1.0000 </r>
       <r>    1.6599    1.0000 </r>
       <r>    1.6709    1.0000 </r>
       <r>    1.7240    1.0000 </r>
       <r>    2.7550    1.0000 </r>
       <r>    2.7833    1.0000 </r>
       <r>    2.7864    1.0000 </r>
       <r>    3.0088    1.0000 </r>
       <r>    3.1005    1.0000 </r>
       <r>    3.4118    1.0000 </r>
       <r>    3.6158    1.0000 </r>
       <r>    3.6561    1.0000 </r>
       <r>    3.6825    1.0000 </r>
       <r>    6.3326    0.0000 </r>
       <r>    6.6219    0.0000 </r>
       <r>    6.6692    0.0000 </r>
       <r>    6.8253    0.0000 </r>
       <r>    6.9066    0.0000 </r>
       <r>    6.9155    0.0000 </r>
       <r>    7.4855    0.0000 </r>
       <r>    7.4898    0.0000 </r>
       <r>    7.7045    0.0000 </r>
       <r>    8.4659    0.0000 </r>
       <r>    8.4902    0.0000 </r>
      </set>
      <set comment="kpoint 7">
       <r>   -9.2885    1.0000 </r>
       <r>   -9.1937    1.0000 </r>
       <r>   -9.1934    1.0000 </r>
       <r>   -8.2406    1.0000 </r>
       <r>   -8.2401    1.0000 </r>
       <r>   -8.0915    1.0000 </r>
       <r>   -1.0356    1.0000 </r>
       <r>   -0.6003    1.0000 </r>
       <r>   -0.6000    1.0000 </r>
       <r>    1.1283    1.0000 </r>
       <r>    1.1373    1.0000 </r>
       <r>    1.1433    1.0000 </r>
       <r>    1.5127    1.0000 </r>
       <r>    1.5134    1.0000 </r>
       <r>    1.9035    1.0000 </r>
       <r>    2.2515    1.0000 </r>
       <r>    2.2569    1.0000 </r>
       <r>    2.2626    1.0000 </r>
       <r>    2.3240    1.0000 </r>
       <r>    2.3300    1.0000 </r>
       <r>    2.3323    1.0000 </r>
       <r>    3.3265    1.0000 </r>
       <r>    3.3474    1.0000 </r>
       <r>    3.9358    1.0000 </r>
       <r>    4.0131    1.0000 </r>
       <r>    4.3619    1.0000 </r>
       <r>    4.3704    1.0000 </r>
       <r>    6.6281    0.0000 </r>
       <r>    6.8486    0.0000 </r>
       <r>    6.8646    0.0000 </r>
       <r>    7.0288    0.0000 </r>
       <r>    7.0462    0.0000 </r>
       <r>    7.1013    0.0000 </r>
       <r>    7.1466    0.0000 </r>
       <r>    7.1705    0.0000 </r>
       <r>    7.1860    0.0000 </r>
       <r>    7.8740    0.0000 </r>
       <r>    7.8842    0.0000 </r>
      </set>
      <set comment="kpoint 8">
       <r>   -9.6062    1.0000 </r>
       <r>   -9.5076    1.0000 </r>
       <r>   -9.5075    1.0000 </r>
       <r>   -8.3963    1.0000 </r>
       <r>   -8.3962    1.0000 </r>
       <r>   -8.2300    1.0000 </r>
       <r>   -1.3810    1.0000 </r>
       <r>   -0.9227    1.0000 </r>
       <r>   -0.9226    1.0000 </r>
       <r>    1.7338    1.0000 </r>
       <r>    1.7373    1.0000 </r>
       <r>    1.7420    1.0000 </r>
       <r>    1.9250    1.0000 </r>
       <r>    1.9281    1.0000 </r>
       <r>    1.9323    1.0000 </r>
       <r>    2.1331    1.0000 </r>
       <r>    2.1333    1.0000 </r>
       <r>    2.6983    1.0000 </r>
       <r>    2.8829    1.0000 </r>
       <r>    2.8897    1.0000 </r>
       <r>    2.8975    1.0000 </r>
       <r>    3.1079    1.0000 </r>
       <r>    3.1172    1.0000 </r>
       <r>    3.8133    1.0000 </r>
       <r>    4.1041    1.0000 </r>
       <r>    4.8117    1.0000 </r>
       <r>    4.8126    1.0000 </r>
       <r>    7.1714    0.0000 </r>
       <r>    7.1776    0.0000 </r>
       <r>    7.1908    0.0000 </r>
       <r>    7.3315    0.0000 </r>
       <r>    7.3335    0.0000 </r>
       <r>    7.3494    0.0000 </r>
       <r>    7.3530    0.0000 </r>
       <r>    7.3691    0.0000 </r>
       <r>    7.3831    0.0000 </r>
       <r>    7.4079    0.0000 </r>
       <r>    7.4427    0.0000 </r>
      </set>
      <set comment="kpoint 9">
       <r>   -8.4231    1.0000 </r>
       <r>   -8.3483    1.0000 </r>
       <r>   -8.3483    1.0000 </r>
       <r>   -7.8197    1.0000 </r>
       <r>   -7.8197    1.0000 </r>
       <r>   -7.7231    1.0000 </r>
       <r>   -0.6628    1.0000 </r>
       <r>   -0.4620    1.0000 </r>
       <r>   -0.4620    1.0000 </r>
       <r>    0.4443    1.0000 </r>
       <r>    0.4443    1.0000 </r>
       <r>    0.5135    1.0000 </r>
       <r>    0.6273    1.0000 </r>
       <r>    0.7556    1.0000 </r>
       <r>    0.7556    1.0000 </r>
       <r>    1.1680    1.0000 </r>
       <r>    1.1680    1.0000 </r>
       <r>    1.3863    1.0000 </r>
       <r>    2.3657    1.0000 </r>
       <r>    2.3657    1.0000 </r>
       <r>    2.3974    1.0000 </r>
       <r>    3.2679    1.0000 </r>
       <r>    3.2679    1.0000 </r>
       <r>    3.4480    1.0000 </r>
       <r>    3.6738    1.0000 </r>
       <r>    3.6738    1.0000 </r>
       <r>    3.7008    1.0000 </r>
       <r>    6.1635    0.0000 </r>
       <r>    6.5608    0.0000 </r>
       <r>    6.5608    0.0000 </r>
       <r>    6.9483    0.0000 </r>
       <r>    6.9586    0.0000 </r>
       <r>    6.9586    0.0000 </r>
       <r>    7.3471    0.0000 </r>
       <r>    7.3471    0.0000 </r>
       <r>    7.4833    0.0000 </r>
       <r>    8.7953    0.0000 </r>
       <r>    8.7957    0.0000 </r>
      </set>
      <set comment="kpoint 10">
       <r>   -7.8450    1.0000 </r>
       <r>   -7.8062    1.0000 </r>
       <r>   -7.7963    1.0000 </r>
       <r>   -7.5472    1.0000 </r>
       <r>   -7.5351    1.0000 </r>
       <r>   -7.4908    1.0000 </r>
       <r>   -0.8108    1.0000 </r>
       <r>   -0.7256    1.0000 </r>
       <r>   -0.7080    1.0000 </r>
       <r>   -0.4203    1.0000 </r>
       <r>   -0.3982    1.0000 </r>
       <r>   -0.3974    1.0000 </r>
       <r>    0.6388    1.0000 </r>
       <r>    0.6522    1.0000 </r>
       <r>    0.7864    1.0000 </r>
       <r>    1.2064    1.0000 </r>
       <r>    1.2249    1.0000 </r>
       <r>    1.3950    1.0000 </r>
       <r>    1.8592    1.0000 </r>
       <r>    1.9350    1.0000 </r>
       <r>    1.9817    1.0000 </r>
       <r>    2.7390    1.0000 </r>
       <r>    2.8273    1.0000 </r>
       <r>    2.8317    1.0000 </r>
       <r>    3.9732    1.0000 </r>
       <r>    3.9902    1.0000 </r>
       <r>    3.9965    1.0000 </r>
       <r>    6.4900    0.0000 </r>
       <r>    6.7192    0.0000 </r>
       <r>    6.7209    0.0000 </r>
       <r>    7.1737    0.0000 </r>
       <r>    7.2555    0.0000 </r>
       <r>    7.2713    0.0000 </r>
       <r>    7.6690    0.0000 </r>
       <r>    7.7569    0.0000 </r>
       <r>    7.7785    0.0000 </r>
       <r>    8.9111    0.0000 </r>
       <r>    9.0156    0.0000 </r>
      </set>
      <set comment="kpoint 11">
       <r>   -7.6859    1.0000 </r>
       <r>   -7.6725    1.0000 </r>
       <r>   -7.6514    1.0000 </r>
       <r>   -7.4780    1.0000 </r>
       <r>   -7.4536    1.0000 </r>
       <r>   -7.4388    1.0000 </r>
       <r>   -0.8249    1.0000 </r>
       <r>   -0.7949    1.0000 </r>
       <r>   -0.7531    1.0000 </r>
       <r>   -0.6324    1.0000 </r>
       <r>   -0.6092    1.0000 </r>
       <r>   -0.6068    1.0000 </r>
       <r>    0.4987    1.0000 </r>
       <r>    0.5143    1.0000 </r>
       <r>    0.6618    1.0000 </r>
       <r>    1.2923    1.0000 </r>
       <r>    1.3439    1.0000 </r>
       <r>    1.4157    1.0000 </r>
       <r>    1.8098    1.0000 </r>
       <r>    1.9267    1.0000 </r>
       <r>    1.9526    1.0000 </r>
       <r>    2.5329    1.0000 </r>
       <r>    2.6340    1.0000 </r>
       <r>    2.6437    1.0000 </r>
       <r>    4.1625    1.0000 </r>
       <r>    4.1638    1.0000 </r>
       <r>    4.2029    1.0000 </r>
       <r>    6.5066    0.0000 </r>
       <r>    6.5577    0.0000 </r>
       <r>    6.5680    0.0000 </r>
       <r>    7.4157    0.0000 </r>
       <r>    7.4808    0.0000 </r>
       <r>    7.5586    0.0000 </r>
       <r>    7.7996    0.0000 </r>
       <r>    7.8263    0.0000 </r>
       <r>    7.9081    0.0000 </r>
       <r>    8.8730    0.0000 </r>
       <r>    9.0427    0.0000 </r>
      </set>
      <set comment="kpoint 12">
       <r>   -8.1096    1.0000 </r>
       <r>   -8.0499    1.0000 </r>
       <r>   -8.0467    1.0000 </r>
       <r>   -7.6701    1.0000 </r>
       <r>   -7.6659    1.0000 </r>
       <r>   -7.5939    1.0000 </r>
       <r>   -0.7418    1.0000 </r>
       <r>   -0.6079    1.0000 </r>
       <r>   -0.6039    1.0000 </r>
       <r>   -0.0277    1.0000 </r>
       <r>   -0.0144    1.0000 </r>
       <r>   -0.0011    1.0000 </r>
       <r>    0.7051    1.0000 </r>
       <r>    0.7473    1.0000 </r>
       <r>    0.8167    1.0000 </r>
       <r>    1.1597    1.0000 </r>
       <r>    1.1615    1.0000 </r>
       <r>    1.3561    1.0000 </r>
       <r>    2.0478    1.0000 </r>
       <r>    2.0982    1.0000 </r>
       <r>    2.0997    1.0000 </r>
       <r>    3.0256    1.0000 </r>
       <r>    3.0709    1.0000 </r>
       <r>    3.1415    1.0000 </r>
       <r>    3.7719    1.0000 </r>
       <r>    3.7803    1.0000 </r>
       <r>    3.8093    1.0000 </r>
       <r>    6.3125    0.0000 </r>
       <r>    6.7390    0.0000 </r>
       <r>    6.7474    0.0000 </r>
       <r>    7.0157    0.0000 </r>
       <r>    7.0230    0.0000 </r>
       <r>    7.0378    0.0000 </r>
       <r>    7.4845    0.0000 </r>
       <r>    7.5231    0.0000 </r>
       <r>    7.6505    0.0000 </r>
       <r>    8.9106    0.0000 </r>
       <r>    8.9407    0.0000 </r>
      </set>
      <set comment="kpoint 13">
       <r>   -8.7328    1.0000 </r>
       <r>   -8.6493    1.0000 </r>
       <r>   -8.6481    1.0000 </r>
       <r>   -7.9711    1.0000 </r>
       <r>   -7.9693    1.0000 </r>
       <r>   -7.8538    1.0000 </r>
       <r>   -0.6751    1.0000 </r>
       <r>   -0.3753    1.0000 </r>
       <r>   -0.3740    1.0000 </r>
       <r>    0.6148    1.0000 </r>
       <r>    0.6175    1.0000 </r>
       <r>    0.6327    1.0000 </r>
       <r>    0.9341    1.0000 </r>
       <r>    0.9411    1.0000 </r>
       <r>    1.0251    1.0000 </r>
       <r>    1.4233    1.0000 </r>
       <r>    1.4241    1.0000 </r>
       <r>    1.5810    1.0000 </r>
       <r>    2.5577    1.0000 </r>
       <r>    2.5687    1.0000 </r>
       <r>    2.5851    1.0000 </r>
       <r>    3.3233    1.0000 </r>
       <r>    3.3567    1.0000 </r>
       <r>    3.6511    1.0000 </r>
       <r>    3.7054    1.0000 </r>
       <r>    3.7369    1.0000 </r>
       <r>    3.7463    1.0000 </r>
       <r>    6.2092    0.0000 </r>
       <r>    6.5462    0.0000 </r>
       <r>    6.5637    0.0000 </r>
       <r>    6.8870    0.0000 </r>
       <r>    6.8958    0.0000 </r>
       <r>    6.9076    0.0000 </r>
       <r>    7.2703    0.0000 </r>
       <r>    7.2749    0.0000 </r>
       <r>    7.3644    0.0000 </r>
       <r>    8.5464    0.0000 </r>
       <r>    8.5595    0.0000 </r>
      </set>
      <set comment="kpoint 14">
       <r>   -9.1887    1.0000 </r>
       <r>   -9.0957    1.0000 </r>
       <r>   -9.0948    1.0000 </r>
       <r>   -8.1926    1.0000 </r>
       <r>   -8.1911    1.0000 </r>
       <r>   -8.0487    1.0000 </r>
       <r>   -0.9481    1.0000 </r>
       <r>   -0.5287    1.0000 </r>
       <r>   -0.5283    1.0000 </r>
       <r>    0.9680    1.0000 </r>
       <r>    0.9885    1.0000 </r>
       <r>    0.9900    1.0000 </r>
       <r>    1.3240    1.0000 </r>
       <r>    1.3259    1.0000 </r>
       <r>    1.6497    1.0000 </r>
       <r>    2.3186    1.0000 </r>
       <r>    2.3207    1.0000 </r>
       <r>    2.3420    1.0000 </r>
       <r>    2.3636    1.0000 </r>
       <r>    2.3787    1.0000 </r>
       <r>    2.3810    1.0000 </r>
       <r>    3.1711    1.0000 </r>
       <r>    3.2274    1.0000 </r>
       <r>    3.7877    1.0000 </r>
       <r>    3.9503    1.0000 </r>
       <r>    4.2045    1.0000 </r>
       <r>    4.2271    1.0000 </r>
       <r>    6.5189    0.0000 </r>
       <r>    6.8280    0.0000 </r>
       <r>    6.8680    0.0000 </r>
       <r>    6.9811    0.0000 </r>
       <r>    7.0545    0.0000 </r>
       <r>    7.0669    0.0000 </r>
       <r>    7.2023    0.0000 </r>
       <r>    7.2130    0.0000 </r>
       <r>    7.3107    0.0000 </r>
       <r>    7.9101    0.0000 </r>
       <r>    7.9304    0.0000 </r>
      </set>
      <set comment="kpoint 15">
       <r>   -7.5568    1.0000 </r>
       <r>   -7.5459    1.0000 </r>
       <r>   -7.5459    1.0000 </r>
       <r>   -7.3873    1.0000 </r>
       <r>   -7.3873    1.0000 </r>
       <r>   -7.3752    1.0000 </r>
       <r>   -0.8777    1.0000 </r>
       <r>   -0.8777    1.0000 </r>
       <r>   -0.8768    1.0000 </r>
       <r>   -0.2635    1.0000 </r>
       <r>   -0.1952    1.0000 </r>
       <r>   -0.1952    1.0000 </r>
       <r>    0.5155    1.0000 </r>
       <r>    0.5155    1.0000 </r>
       <r>    0.5487    1.0000 </r>
       <r>    0.9324    1.0000 </r>
       <r>    0.9324    1.0000 </r>
       <r>    0.9395    1.0000 </r>
       <r>    1.5289    1.0000 </r>
       <r>    1.5289    1.0000 </r>
       <r>    1.6103    1.0000 </r>
       <r>    2.3686    1.0000 </r>
       <r>    2.3891    1.0000 </r>
       <r>    2.3891    1.0000 </r>
       <r>    4.4188    1.0000 </r>
       <r>    4.4270    1.0000 </r>
       <r>    4.4270    1.0000 </r>
       <r>    6.1858    0.0000 </r>
       <r>    6.2010    0.0000 </r>
       <r>    6.2010    0.0000 </r>
       <r>    7.4791    0.0000 </r>
       <r>    7.4791    0.0000 </r>
       <r>    7.4827    0.0000 </r>
       <r>    7.8843    0.0000 </r>
       <r>    8.0010    0.0000 </r>
       <r>    8.0010    0.0000 </r>
       <r>    9.2756    0.0000 </r>
       <r>    9.2761    0.0000 </r>
      </set>
      <set comment="kpoint 16">
       <r>   -7.6631    1.0000 </r>
       <r>   -7.6389    1.0000 </r>
       <r>   -7.6318    1.0000 </r>
       <r>   -7.4491    1.0000 </r>
       <r>   -7.4408    1.0000 </r>
       <r>   -7.4138    1.0000 </r>
       <r>   -0.7121    1.0000 </r>
       <r>   -0.7083    1.0000 </r>
       <r>   -0.7060    1.0000 </r>
       <r>   -0.5923    1.0000 </r>
       <r>   -0.5041    1.0000 </r>
       <r>   -0.4950    1.0000 </r>
       <r>    0.6542    1.0000 </r>
       <r>    0.7101    1.0000 </r>
       <r>    0.7931    1.0000 </r>
       <r>    1.1999    1.0000 </r>
       <r>    1.2898    1.0000 </r>
       <r>    1.2985    1.0000 </r>
       <r>    1.3494    1.0000 </r>
       <r>    1.4127    1.0000 </r>
       <r>    1.5148    1.0000 </r>
       <r>    2.5687    1.0000 </r>
       <r>    2.5749    1.0000 </r>
       <r>    2.6065    1.0000 </r>
       <r>    4.2084    1.0000 </r>
       <r>    4.2110    1.0000 </r>
       <r>    4.2236    1.0000 </r>
       <r>    6.3821    0.0000 </r>
       <r>    6.4620    0.0000 </r>
       <r>    6.4627    0.0000 </r>
       <r>    7.4606    0.0000 </r>
       <r>    7.4719    0.0000 </r>
       <r>    7.5119    0.0000 </r>
       <r>    7.6527    0.0000 </r>
       <r>    7.7779    0.0000 </r>
       <r>    7.8116    0.0000 </r>
       <r>    9.1095    0.0000 </r>
       <r>    9.1744    0.0000 </r>
      </set>
      <set comment="kpoint 17">
       <r>   -8.0701    1.0000 </r>
       <r>   -8.0172    1.0000 </r>
       <r>   -8.0074    1.0000 </r>
       <r>   -7.6621    1.0000 </r>
       <r>   -7.6495    1.0000 </r>
       <r>   -7.5867    1.0000 </r>
       <r>   -0.8919    1.0000 </r>
       <r>   -0.7920    1.0000 </r>
       <r>   -0.7766    1.0000 </r>
       <r>   -0.1039    1.0000 </r>
       <r>   -0.0729    1.0000 </r>
       <r>   -0.0301    1.0000 </r>
       <r>    0.5641    1.0000 </r>
       <r>    0.6095    1.0000 </r>
       <r>    0.7438    1.0000 </r>
       <r>    1.2405    1.0000 </r>
       <r>    1.2462    1.0000 </r>
       <r>    1.3866    1.0000 </r>
       <r>    2.4738    1.0000 </r>
       <r>    2.5196    1.0000 </r>
       <r>    2.5643    1.0000 </r>
       <r>    2.8157    1.0000 </r>
       <r>    2.9338    1.0000 </r>
       <r>    3.0228    1.0000 </r>
       <r>    3.7968    1.0000 </r>
       <r>    3.8044    1.0000 </r>
       <r>    3.8183    1.0000 </r>
       <r>    6.4289    0.0000 </r>
       <r>    6.7266    0.0000 </r>
       <r>    6.7487    0.0000 </r>
       <r>    6.9981    0.0000 </r>
       <r>    7.0388    0.0000 </r>
       <r>    7.0478    0.0000 </r>
       <r>    7.7213    0.0000 </r>
       <r>    7.8040    0.0000 </r>
       <r>    7.9355    0.0000 </r>
       <r>    8.7905    0.0000 </r>
       <r>    8.8540    0.0000 </r>
      </set>
      <set comment="kpoint 18">
       <r>   -8.5044    1.0000 </r>
       <r>   -8.4305    1.0000 </r>
       <r>   -8.4248    1.0000 </r>
       <r>   -7.8694    1.0000 </r>
       <r>   -7.8610    1.0000 </r>
       <r>   -7.7646    1.0000 </r>
       <r>   -0.7964    1.0000 </r>
       <r>   -0.6105    1.0000 </r>
       <r>   -0.6064    1.0000 </r>
       <r>    0.3351    1.0000 </r>
       <r>    0.3363    1.0000 </r>
       <r>    0.4773    1.0000 </r>
       <r>    0.5892    1.0000 </r>
       <r>    0.6586    1.0000 </r>
       <r>    0.7289    1.0000 </r>
       <r>    1.7128    1.0000 </r>
       <r>    1.7139    1.0000 </r>
       <r>    1.7394    1.0000 </r>
       <r>    2.7385    1.0000 </r>
       <r>    2.8732    1.0000 </r>
       <r>    2.9988    1.0000 </r>
       <r>    3.0349    1.0000 </r>
       <r>    3.0372    1.0000 </r>
       <r>    3.1947    1.0000 </r>
       <r>    3.4937    1.0000 </r>
       <r>    3.5595    1.0000 </r>
       <r>    3.5892    1.0000 </r>
       <r>    6.4932    0.0000 </r>
       <r>    6.6576    0.0000 </r>
       <r>    6.7223    0.0000 </r>
       <r>    6.7250    0.0000 </r>
       <r>    6.8962    0.0000 </r>
       <r>    6.9083    0.0000 </r>
       <r>    7.7323    0.0000 </r>
       <r>    7.7735    0.0000 </r>
       <r>    8.0651    0.0000 </r>
       <r>    8.4349    0.0000 </r>
       <r>    8.4450    0.0000 </r>
      </set>
      <set comment="kpoint 19">
       <r>   -7.7319    1.0000 </r>
       <r>   -7.7319    1.0000 </r>
       <r>   -7.6980    1.0000 </r>
       <r>   -7.5206    1.0000 </r>
       <r>   -7.4816    1.0000 </r>
       <r>   -7.4816    1.0000 </r>
       <r>   -1.0746    1.0000 </r>
       <r>   -1.0746    1.0000 </r>
       <r>   -1.0170    1.0000 </r>
       <r>   -0.5103    1.0000 </r>
       <r>   -0.4619    1.0000 </r>
       <r>   -0.4619    1.0000 </r>
       <r>    0.4201    1.0000 </r>
       <r>    0.4201    1.0000 </r>
       <r>    0.5793    1.0000 </r>
       <r>    1.2777    1.0000 </r>
       <r>    1.3273    1.0000 </r>
       <r>    1.3273    1.0000 </r>
       <r>    2.4673    1.0000 </r>
       <r>    2.5525    1.0000 </r>
       <r>    2.6183    1.0000 </r>
       <r>    2.6183    1.0000 </r>
       <r>    2.6912    1.0000 </r>
       <r>    2.6912    1.0000 </r>
       <r>    4.0815    1.0000 </r>
       <r>    4.0815    1.0000 </r>
       <r>    4.1384    1.0000 </r>
       <r>    6.6562    0.0000 </r>
       <r>    6.6562    0.0000 </r>
       <r>    6.6889    0.0000 </r>
       <r>    7.3011    0.0000 </r>
       <r>    7.3011    0.0000 </r>
       <r>    7.3765    0.0000 </r>
       <r>    8.1321    0.0000 </r>
       <r>    8.1321    0.0000 </r>
       <r>    8.2686    0.0000 </r>
       <r>    8.5844    0.0000 </r>
       <r>    8.8075    0.0000 </r>
      </set>
      <set comment="kpoint 20">
       <r>   -7.9072    1.0000 </r>
       <r>   -7.8775    1.0000 </r>
       <r>   -7.8540    1.0000 </r>
       <r>   -7.6092    1.0000 </r>
       <r>   -7.5806    1.0000 </r>
       <r>   -7.5471    1.0000 </r>
       <r>   -1.2261    1.0000 </r>
       <r>   -1.1887    1.0000 </r>
       <r>   -1.1479    1.0000 </r>
       <r>   -0.2804    1.0000 </r>
       <r>   -0.2221    1.0000 </r>
       <r>   -0.1694    1.0000 </r>
       <r>    0.3855    1.0000 </r>
       <r>    0.4184    1.0000 </r>
       <r>    0.5584    1.0000 </r>
       <r>    1.3593    1.0000 </r>
       <r>    1.3597    1.0000 </r>
       <r>    1.3877    1.0000 </r>
       <r>    2.4549    1.0000 </r>
       <r>    2.6764    1.0000 </r>
       <r>    2.7949    1.0000 </r>
       <r>    3.4204    1.0000 </r>
       <r>    3.4876    1.0000 </r>
       <r>    3.4886    1.0000 </r>
       <r>    3.6693    1.0000 </r>
       <r>    3.7654    1.0000 </r>
       <r>    3.8026    1.0000 </r>
       <r>    6.6467    0.0000 </r>
       <r>    6.6734    0.0000 </r>
       <r>    6.6735    0.0000 </r>
       <r>    6.9987    0.0000 </r>
       <r>    7.1627    0.0000 </r>
       <r>    7.1707    0.0000 </r>
       <r>    8.1743    0.0000 </r>
       <r>    8.3538    0.0000 </r>
       <r>    8.5003    0.0000 </r>
       <r>    8.6706    0.0000 </r>
       <r>    8.6734    0.0000 </r>
      </set>
     </set>
     <set comment="spin 2">
      <set comment="kpoint 1">
       <r>   -9.4974    1.0000 </r>
       <r>   -9.3999    1.0000 </r>
       <r>   -9.3999    1.0000 </r>
       <r>   -8.3427    1.0000 </r>
       <r>   -8.3427    1.0000 </r>
       <r>   -8.1824    1.0000 </r>
       <r>   -1.2559    1.0000 </r>
       <r>   -0.8030    1.0000 </r>
       <r>   -0.8030    1.0000 </r>
       <r>    1.5038    1.0000 </r>
       <r>    1.5038    1.0000 </r>
       <r>    1.5124    1.0000 </r>
       <r>    1.8681    1.0000 </r>
       <r>    1.8681    1.0000 </r>
       <r>    2.0427    1.0000 </r>
       <r>    2.0427    1.0000 </r>
       <r>    2.0491    1.0000 </r>
       <r>    2.3625    1.0000 </r>
       <r>    2.6762    1.0000 </r>
       <r>    2.6848    1.0000 </r>
       <r>    2.6848    1.0000 </r>
       <r>    3.2537    1.0000 </r>
       <r>    3.2537    1.0000 </r>
       <r>    3.9408    1.0000 </r>
       <r>    4.0893    1.0000 </r>
       <r>    4.6673    1.0000 </r>
       <r>    4.6673    1.0000 </r>
       <r>    7.0199    0.0000 </r>
       <r>    7.0393    0.0000 </r>
       <r>    7.0393    0.0000 </r>
       <r>    7.0963    0.0000 </r>
       <r>    7.2035    0.0000 </r>
       <r>    7.2035    0.0000 </r>
       <r>    7.2985    0.0000 </r>
       <r>    7.2985    0.0000 </r>
       <r>    7.3358    0.0000 </r>
       <r>    7.5442    0.0000 </r>
       <r>    7.5751    0.0000 </r>
      </set>
      <set comment="kpoint 2">
       <r>   -8.9975    1.0000 </r>
       <r>   -8.9081    1.0000 </r>
       <r>   -8.9069    1.0000 </r>
       <r>   -8.0999    1.0000 </r>
       <r>   -8.0979    1.0000 </r>
       <r>   -7.9668    1.0000 </r>
       <r>   -0.8026    1.0000 </r>
       <r>   -0.4225    1.0000 </r>
       <r>   -0.4216    1.0000 </r>
       <r>    0.7540    1.0000 </r>
       <r>    0.7700    1.0000 </r>
       <r>    0.7801    1.0000 </r>
       <r>    1.1209    1.0000 </r>
       <r>    1.1221    1.0000 </r>
       <r>    1.3701    1.0000 </r>
       <r>    1.9509    1.0000 </r>
       <r>    1.9600    1.0000 </r>
       <r>    1.9941    1.0000 </r>
       <r>    2.5141    1.0000 </r>
       <r>    2.5283    1.0000 </r>
       <r>    2.5344    1.0000 </r>
       <r>    3.2294    1.0000 </r>
       <r>    3.2820    1.0000 </r>
       <r>    3.7211    1.0000 </r>
       <r>    3.8281    1.0000 </r>
       <r>    3.9606    1.0000 </r>
       <r>    3.9828    1.0000 </r>
       <r>    6.3696    0.0000 </r>
       <r>    6.7187    0.0000 </r>
       <r>    6.7251    0.0000 </r>
       <r>    6.9117    0.0000 </r>
       <r>    6.9287    0.0000 </r>
       <r>    6.9375    0.0000 </r>
       <r>    7.2413    0.0000 </r>
       <r>    7.2468    0.0000 </r>
       <r>    7.3500    0.0000 </r>
       <r>    8.2024    0.0000 </r>
       <r>    8.2129    0.0000 </r>
      </set>
      <set comment="kpoint 3">
       <r>   -8.3011    1.0000 </r>
       <r>   -8.2363    1.0000 </r>
       <r>   -8.2283    1.0000 </r>
       <r>   -7.7744    1.0000 </r>
       <r>   -7.7634    1.0000 </r>
       <r>   -7.6826    1.0000 </r>
       <r>   -0.8704    1.0000 </r>
       <r>   -0.7387    1.0000 </r>
       <r>   -0.7280    1.0000 </r>
       <r>    0.1438    1.0000 </r>
       <r>    0.1668    1.0000 </r>
       <r>    0.2993    1.0000 </r>
       <r>    0.5051    1.0000 </r>
       <r>    0.6135    1.0000 </r>
       <r>    0.7178    1.0000 </r>
       <r>    1.4669    1.0000 </r>
       <r>    1.4798    1.0000 </r>
       <r>    1.5266    1.0000 </r>
       <r>    2.7475    1.0000 </r>
       <r>    2.8817    1.0000 </r>
       <r>    2.9333    1.0000 </r>
       <r>    2.9388    1.0000 </r>
       <r>    2.9841    1.0000 </r>
       <r>    3.1193    1.0000 </r>
       <r>    3.5963    1.0000 </r>
       <r>    3.6344    1.0000 </r>
       <r>    3.6530    1.0000 </r>
       <r>    6.4496    0.0000 </r>
       <r>    6.6226    0.0000 </r>
       <r>    6.6719    0.0000 </r>
       <r>    6.8268    0.0000 </r>
       <r>    6.9781    0.0000 </r>
       <r>    6.9880    0.0000 </r>
       <r>    7.8013    0.0000 </r>
       <r>    7.8062    0.0000 </r>
       <r>    8.0556    0.0000 </r>
       <r>    8.6445    0.0000 </r>
       <r>    8.6563    0.0000 </r>
      </set>
      <set comment="kpoint 4">
       <r>   -7.8134    1.0000 </r>
       <r>   -7.7985    1.0000 </r>
       <r>   -7.7687    1.0000 </r>
       <r>   -7.5671    1.0000 </r>
       <r>   -7.5321    1.0000 </r>
       <r>   -7.5156    1.0000 </r>
       <r>   -1.2287    1.0000 </r>
       <r>   -1.2097    1.0000 </r>
       <r>   -1.1606    1.0000 </r>
       <r>   -0.3829    1.0000 </r>
       <r>   -0.3200    1.0000 </r>
       <r>   -0.3002    1.0000 </r>
       <r>    0.3807    1.0000 </r>
       <r>    0.3920    1.0000 </r>
       <r>    0.5428    1.0000 </r>
       <r>    1.3106    1.0000 </r>
       <r>    1.3186    1.0000 </r>
       <r>    1.3249    1.0000 </r>
       <r>    2.4635    1.0000 </r>
       <r>    2.6928    1.0000 </r>
       <r>    2.7389    1.0000 </r>
       <r>    3.1381    1.0000 </r>
       <r>    3.1920    1.0000 </r>
       <r>    3.2139    1.0000 </r>
       <r>    3.9215    1.0000 </r>
       <r>    3.9453    1.0000 </r>
       <r>    3.9965    1.0000 </r>
       <r>    6.6766    0.0000 </r>
       <r>    6.6967    0.0000 </r>
       <r>    6.7016    0.0000 </r>
       <r>    7.1351    0.0000 </r>
       <r>    7.2065    0.0000 </r>
       <r>    7.2310    0.0000 </r>
       <r>    8.2788    0.0000 </r>
       <r>    8.3563    0.0000 </r>
       <r>    8.4886    0.0000 </r>
       <r>    8.6215    0.0000 </r>
       <r>    8.6841    0.0000 </r>
      </set>
      <set comment="kpoint 5">
       <r>   -7.9982    1.0000 </r>
       <r>   -7.9555    1.0000 </r>
       <r>   -7.9389    1.0000 </r>
       <r>   -7.6416    1.0000 </r>
       <r>   -7.6208    1.0000 </r>
       <r>   -7.5713    1.0000 </r>
       <r>   -1.0908    1.0000 </r>
       <r>   -1.0274    1.0000 </r>
       <r>   -0.9979    1.0000 </r>
       <r>   -0.1934    1.0000 </r>
       <r>   -0.1490    1.0000 </r>
       <r>   -0.0836    1.0000 </r>
       <r>    0.4447    1.0000 </r>
       <r>    0.4926    1.0000 </r>
       <r>    0.6302    1.0000 </r>
       <r>    1.3549    1.0000 </r>
       <r>    1.3681    1.0000 </r>
       <r>    1.3957    1.0000 </r>
       <r>    2.5632    1.0000 </r>
       <r>    2.7457    1.0000 </r>
       <r>    2.8811    1.0000 </r>
       <r>    3.0557    1.0000 </r>
       <r>    3.0772    1.0000 </r>
       <r>    3.1269    1.0000 </r>
       <r>    3.7571    1.0000 </r>
       <r>    3.8012    1.0000 </r>
       <r>    3.8263    1.0000 </r>
       <r>    6.5991    0.0000 </r>
       <r>    6.6735    0.0000 </r>
       <r>    6.7004    0.0000 </r>
       <r>    6.9470    0.0000 </r>
       <r>    7.1048    0.0000 </r>
       <r>    7.1077    0.0000 </r>
       <r>    8.0932    0.0000 </r>
       <r>    8.1079    0.0000 </r>
       <r>    8.3326    0.0000 </r>
       <r>    8.6833    0.0000 </r>
       <r>    8.7130    0.0000 </r>
      </set>
      <set comment="kpoint 6">
       <r>   -8.6540    1.0000 </r>
       <r>   -8.5739    1.0000 </r>
       <r>   -8.5705    1.0000 </r>
       <r>   -7.9369    1.0000 </r>
       <r>   -7.9317    1.0000 </r>
       <r>   -7.8233    1.0000 </r>
       <r>   -0.7202    1.0000 </r>
       <r>   -0.4684    1.0000 </r>
[...]
       <r>    7.1013    0.0000 </r>
       <r>    7.1466    0.0000 </r>
       <r>    7.1705    0.0000 </r>
       <r>    7.1860    0.0000 </r>
       <r>    7.8713    0.0000 </r>
       <r>    7.8876    0.0000 </r>
      </set>
      <set comment="kpoint 8">
       <r>   -9.6062    1.0000 </r>
       <r>   -9.5076    1.0000 </r>
       <r>   -9.5075    1.0000 </r>
       <r>   -8.3963    1.0000 </r>
       <r>   -8.3962    1.0000 </r>
       <r>   -8.2300    1.0000 </r>
       <r>   -1.3810    1.0000 </r>
       <r>   -0.9227    1.0000 </r>
       <r>   -0.9226    1.0000 </r>
       <r>    1.7338    1.0000 </r>
       <r>    1.7373    1.0000 </r>
       <r>    1.7420    1.0000 </r>
       <r>    1.9250    1.0000 </r>
       <r>    1.9281    1.0000 </r>
       <r>    1.9323    1.0000 </r>
       <r>    2.1331    1.0000 </r>
       <r>    2.1333    1.0000 </r>
       <r>    2.6983    1.0000 </r>
       <r>    2.8829    1.0000 </r>
       <r>    2.8897    1.0000 </r>
       <r>    2.8975    1.0000 </r>
       <r>    3.1079    1.0000 </r>
       <r>    3.1172    1.0000 </r>
       <r>    3.8133    1.0000 </r>
       <r>    4.1041    1.0000 </r>
       <r>    4.8117    1.0000 </r>
       <r>    4.8126    1.0000 </r>
       <r>    7.1714    0.0000 </r>
       <r>    7.1776    0.0000 </r>
       <r>    7.1908    0.0000 </r>
       <r>    7.3314    0.0000 </r>
       <r>    7.3335    0.0000 </r>
       <r>    7.3494    0.0000 </r>
       <r>    7.3529    0.0000 </r>
       <r>    7.3691    0.0000 </r>
       <r>    7.3821    0.0000 </r>
       <r>    7.4076    0.0000 </r>
       <r>    7.4426    0.0000 </r>
      </set>
      <set comment="kpoint 9">
       <r>   -8.4231    1.0000 </r>
       <r>   -8.3483    1.0000 </r>
       <r>   -8.3483    1.0000 </r>
       <r>   -7.8197    1.0000 </r>
       <r>   -7.8197    1.0000 </r>
       <r>   -7.7231    1.0000 </r>
       <r>   -0.6628    1.0000 </r>
       <r>   -0.4620    1.0000 </r>
       <r>   -0.4620    1.0000 </r>
       <r>    0.4443    1.0000 </r>
       <r>    0.4443    1.0000 </r>
       <r>    0.5135    1.0000 </r>
       <r>    0.6273    1.0000 </r>
       <r>    0.7556    1.0000 </r>
       <r>    0.7556    1.0000 </r>
       <r>    1.1680    1.0000 </r>
       <r>    1.1680    1.0000 </r>
       <r>    1.3863    1.0000 </r>
       <r>    2.3657    1.0000 </r>
       <r>    2.3657    1.0000 </r>
       <r>    2.3974    1.0000 </r>
       <r>    3.2679    1.0000 </r>
       <r>    3.2679    1.0000 </r>
       <r>    3.4480    1.0000 </r>
       <r>    3.6738    1.0000 </r>
       <r>    3.6738    1.0000 </r>
       <r>    3.7008    1.0000 </r>
       <r>    6.1635    0.0000 </r>
       <r>    6.5608    0.0000 </r>
       <r>    6.5608    0.0000 </r>
       <r>    6.9483    0.0000 </r>
       <r>    6.9586    0.0000 </r>
       <r>    6.9586    0.0000 </r>
       <r>    7.3471    0.0000 </r>
       <r>    7.3471    0.0000 </r>
       <r>    7.4833    0.0000 </r>
       <r>    8.7953    0.0000 </r>
       <r>    8.7968    0.0000 </r>
      </set>
      <set comment="kpoint 10">
       <r>   -7.8450    1.0000 </r>
       <r>   -7.8062    1.0000 </r>
       <r>   -7.7963    1.0000 </r>
       <r>   -7.5472    1.0000 </r>
       <r>   -7.5351    1.0000 </r>
       <r>   -7.4908    1.0000 </r>
       <r>   -0.8108    1.0000 </r>
       <r>   -0.7256    1.0000 </r>
       <r>   -0.7080    1.0000 </r>
       <r>   -0.4203    1.0000 </r>
       <r>   -0.3982    1.0000 </r>
       <r>   -0.3974    1.0000 </r>
       <r>    0.6388    1.0000 </r>
       <r>    0.6522    1.0000 </r>
       <r>    0.7864    1.0000 </r>
       <r>    1.2064    1.0000 </r>
       <r>    1.2249    1.0000 </r>
       <r>    1.3950    1.0000 </r>
       <r>    1.8592    1.0000 </r>
       <r>    1.9350    1.0000 </r>
       <r>    1.9817    1.0000 </r>
       <r>    2.7390    1.0000 </r>
       <r>    2.8273    1.0000 </r>
       <r>    2.8317    1.0000 </r>
       <r>    3.9732    1.0000 </r>
       <r>    3.9902    1.0000 </r>
       <r>    3.9965    1.0000 </r>
       <r>    6.4900    0.0000 </r>
       <r>    6.7192    0.0000 </r>
       <r>    6.7209    0.0000 </r>
       <r>    7.1737    0.0000 </r>
       <r>    7.2555    0.0000 </r>
       <r>    7.2713    0.0000 </r>
       <r>    7.6690    0.0000 </r>
       <r>    7.7569    0.0000 </r>
       <r>    7.7785    0.0000 </r>
       <r>    8.9111    0.0000 </r>
       <r>    9.0153    0.0000 </r>
      </set>
      <set comment="kpoint 11">
       <r>   -7.6859    1.0000 </r>
       <r>   -7.6725    1.0000 </r>
       <r>   -7.6514    1.0000 </r>
       <r>   -7.4780    1.0000 </r>
       <r>   -7.4536    1.0000 </r>
       <r>   -7.4388    1.0000 </r>
       <r>   -0.8249    1.0000 </r>
       <r>   -0.7949    1.0000 </r>
       <r>   -0.7531    1.0000 </r>
       <r>   -0.6324    1.0000 </r>
       <r>   -0.6092    1.0000 </r>
       <r>   -0.6068    1.0000 </r>
       <r>    0.4987    1.0000 </r>
       <r>    0.5143    1.0000 </r>
       <r>    0.6618    1.0000 </r>
       <r>    1.2923    1.0000 </r>
       <r>    1.3439    1.0000 </r>
       <r>    1.4157    1.0000 </r>
       <r>    1.8098    1.0000 </r>
       <r>    1.9267    1.0000 </r>
       <r>    1.9526    1.0000 </r>
       <r>    2.5329    1.0000 </r>
       <r>    2.6340    1.0000 </r>
       <r>    2.6437    1.0000 </r>
       <r>    4.1625    1.0000 </r>
       <r>    4.1638    1.0000 </r>
       <r>    4.2029    1.0000 </r>
       <r>    6.5066    0.0000 </r>
       <r>    6.5577    0.0000 </r>
       <r>    6.5680    0.0000 </r>
       <r>    7.4157    0.0000 </r>
       <r>    7.4808    0.0000 </r>
       <r>    7.5586    0.0000 </r>
       <r>    7.7996    0.0000 </r>
       <r>    7.8263    0.0000 </r>
       <r>    7.9081    0.0000 </r>
       <r>    8.8707    0.0000 </r>
       <r>    9.0488    0.0000 </r>
      </set>
      <set comment="kpoint 12">
       <r>   -8.1096    1.0000 </r>
       <r>   -8.0499    1.0000 </r>
       <r>   -8.0467    1.0000 </r>
       <r>   -7.6701    1.0000 </r>
       <r>   -7.6659    1.0000 </r>
       <r>   -7.5939    1.0000 </r>
       <r>   -0.7418    1.0000 </r>
       <r>   -0.6079    1.0000 </r>
       <r>   -0.6039    1.0000 </r>
       <r>   -0.0277    1.0000 </r>
       <r>   -0.0144    1.0000 </r>
       <r>   -0.0011    1.0000 </r>
       <r>    0.7051    1.0000 </r>
       <r>    0.7473    1.0000 </r>
       <r>    0.8167    1.0000 </r>
       <r>    1.1597    1.0000 </r>
       <r>    1.1615    1.0000 </r>
       <r>    1.3561    1.0000 </r>
       <r>    2.0478    1.0000 </r>
       <r>    2.0982    1.0000 </r>
       <r>    2.0997    1.0000 </r>
       <r>    3.0256    1.0000 </r>
       <r>    3.0709    1.0000 </r>
       <r>    3.1415    1.0000 </r>
       <r>    3.7719    1.0000 </r>
       <r>    3.7803    1.0000 </r>
       <r>    3.8093    1.0000 </r>
       <r>    6.3125    0.0000 </r>
       <r>    6.7390    0.0000 </r>
       <r>    6.7474    0.0000 </r>
       <r>    7.0157    0.0000 </r>
       <r>    7.0230    0.0000 </r>
       <r>    7.0378    0.0000 </r>
       <r>    7.4845    0.0000 </r>
       <r>    7.5231    0.0000 </r>
       <r>    7.6505    0.0000 </r>
       <r>    8.9101    0.0000 </r>
       <r>    8.9416    0.0000 </r>
      </set>
      <set comment="kpoint 13">
       <r>   -8.7328    1.0000 </r>
       <r>   -8.6493    1.0000 </r>
       <r>   -8.6481    1.0000 </r>
       <r>   -7.9711    1.0000 </r>
       <r>   -7.9693    1.0000 </r>
       <r>   -7.8538    1.0000 </r>
       <r>   -0.6751    1.0000 </r>
       <r>   -0.3753    1.0000 </r>
       <r>   -0.3740    1.0000 </r>
       <r>    0.6148    1.0000 </r>
       <r>    0.6175    1.0000 </r>
       <r>    0.6327    1.0000 </r>
       <r>    0.9341    1.0000 </r>
       <r>    0.9411    1.0000 </r>
       <r>    1.0251    1.0000 </r>
       <r>    1.4233    1.0000 </r>
       <r>    1.4241    1.0000 </r>
       <r>    1.5810    1.0000 </r>
       <r>    2.5577    1.0000 </r>
       <r>    2.5687    1.0000 </r>
       <r>    2.5851    1.0000 </r>
       <r>    3.3233    1.0000 </r>
       <r>    3.3567    1.0000 </r>
       <r>    3.6511    1.0000 </r>
       <r>    3.7054    1.0000 </r>
       <r>    3.7369    1.0000 </r>
       <r>    3.7463    1.0000 </r>
       <r>    6.2092    0.0000 </r>
       <r>    6.5462    0.0000 </r>
       <r>    6.5637    0.0000 </r>
       <r>    6.8870    0.0000 </r>
       <r>    6.8958    0.0000 </r>
       <r>    6.9076    0.0000 </r>
       <r>    7.2703    0.0000 </r>
       <r>    7.2749    0.0000 </r>
       <r>    7.3644    0.0000 </r>
       <r>    8.5488    0.0000 </r>
       <r>    8.5599    0.0000 </r>
      </set>
      <set comment="kpoint 14">
       <r>   -9.1887    1.0000 </r>
       <r>   -9.0957    1.0000 </r>
       <r>   -9.0948    1.0000 </r>
       <r>   -8.1926    1.0000 </r>
       <r>   -8.1911    1.0000 </r>
       <r>   -8.0487    1.0000 </r>
       <r>   -0.9481    1.0000 </r>
       <r>   -0.5287    1.0000 </r>
       <r>   -0.5283    1.0000 </r>
       <r>    0.9680    1.0000 </r>
       <r>    0.9885    1.0000 </r>
       <r>    0.9900    1.0000 </r>
       <r>    1.3240    1.0000 </r>
       <r>    1.3259    1.0000 </r>
       <r>    1.6497    1.0000 </r>
       <r>    2.3186    1.0000 </r>
       <r>    2.3207    1.0000 </r>
       <r>    2.3420    1.0000 </r>
       <r>    2.3636    1.0000 </r>
       <r>    2.3787    1.0000 </r>
       <r>    2.3810    1.0000 </r>
       <r>    3.1711    1.0000 </r>
       <r>    3.2274    1.0000 </r>
       <r>    3.7877    1.0000 </r>
       <r>    3.9503    1.0000 </r>
       <r>    4.2045    1.0000 </r>
       <r>    4.2271    1.0000 </r>
       <r>    6.5189    0.0000 </r>
       <r>    6.8280    0.0000 </r>
       <r>    6.8680    0.0000 </r>
       <r>    6.9811    0.0000 </r>
       <r>    7.0545    0.0000 </r>
       <r>    7.0669    0.0000 </r>
       <r>    7.2023    0.0000 </r>
       <r>    7.2130    0.0000 </r>
       <r>    7.3107    0.0000 </r>
       <r>    7.9100    0.0000 </r>
       <r>    7.9304    0.0000 </r>
      </set>
      <set comment="kpoint 15">
       <r>   -7.5568    1.0000 </r>
       <r>   -7.5459    1.0000 </r>
       <r>   -7.5459    1.0000 </r>
       <r>   -7.3873    1.0000 </r>
       <r>   -7.3873    1.0000 </r>
       <r>   -7.3752    1.0000 </r>
       <r>   -0.8777    1.0000 </r>
       <r>   -0.8777    1.0000 </r>
       <r>   -0.8768    1.0000 </r>
       <r>   -0.2635    1.0000 </r>
       <r>   -0.1952    1.0000 </r>
       <r>   -0.1952    1.0000 </r>
       <r>    0.5155    1.0000 </r>
       <r>    0.5155    1.0000 </r>
       <r>    0.5487    1.0000 </r>
       <r>    0.9324    1.0000 </r>
       <r>    0.9324    1.0000 </r>
       <r>    0.9395    1.0000 </r>
       <r>    1.5289    1.0000 </r>
       <r>    1.5289    1.0000 </r>
       <r>    1.6103    1.0000 </r>
       <r>    2.3686    1.0000 </r>
       <r>    2.3891    1.0000 </r>
       <r>    2.3891    1.0000 </r>
       <r>    4.4188    1.0000 </r>
       <r>    4.4270    1.0000 </r>
       <r>    4.4270    1.0000 </r>
       <r>    6.1858    0.0000 </r>
       <r>    6.2010    0.0000 </r>
       <r>    6.2010    0.0000 </r>
       <r>    7.4791    0.0000 </r>
       <r>    7.4791    0.0000 </r>
       <r>    7.4827    0.0000 </r>
       <r>    7.8843    0.0000 </r>
       <r>    8.0010    0.0000 </r>
       <r>    8.0010    0.0000 </r>
       <r>    9.2756    0.0000 </r>
       <r>    9.2772    0.0000 </r>
      </set>
      <set comment="kpoint 16">
       <r>   -7.6631    1.0000 </r>
       <r>   -7.6389    1.0000 </r>
       <r>   -7.6318    1.0000 </r>
       <r>   -7.4491    1.0000 </r>
       <r>   -7.4408    1.0000 </r>
       <r>   -7.4138    1.0000 </r>
       <r>   -0.7121    1.0000 </r>
       <r>   -0.7083    1.0000 </r>
       <r>   -0.7060    1.0000 </r>
       <r>   -0.5923    1.0000 </r>
       <r>   -0.5041    1.0000 </r>
       <r>   -0.4950    1.0000 </r>
       <r>    0.6542    1.0000 </r>
       <r>    0.7101    1.0000 </r>
       <r>    0.7931    1.0000 </r>
       <r>    1.1999    1.0000 </r>
       <r>    1.2898    1.0000 </r>
       <r>    1.2985    1.0000 </r>
       <r>    1.3494    1.0000 </r>
       <r>    1.4127    1.0000 </r>
       <r>    1.5148    1.0000 </r>
       <r>    2.5687    1.0000 </r>
       <r>    2.5749    1.0000 </r>
       <r>    2.6065    1.0000 </r>
       <r>    4.2084    1.0000 </r>
       <r>    4.2110    1.0000 </r>
       <r>    4.2236    1.0000 </r>
       <r>    6.3821    0.0000 </r>
       <r>    6.4620    0.0000 </r>
       <r>    6.4627    0.0000 </r>
       <r>    7.4606    0.0000 </r>
       <r>    7.4719    0.0000 </r>
       <r>    7.5119    0.0000 </r>
       <r>    7.6527    0.0000 </r>
       <r>    7.7779    0.0000 </r>
       <r>    7.8116    0.0000 </r>
       <r>    9.1055    0.0000 </r>
       <r>    9.1704    0.0000 </r>
      </set>
      <set comment="kpoint 17">
       <r>   -8.0701    1.0000 </r>
       <r>   -8.0172    1.0000 </r>
       <r>   -8.0074    1.0000 </r>
       <r>   -7.6621    1.0000 </r>
       <r>   -7.6495    1.0000 </r>
       <r>   -7.5867    1.0000 </r>
       <r>   -0.8919    1.0000 </r>
       <r>   -0.7920    1.0000 </r>
       <r>   -0.7766    1.0000 </r>
       <r>   -0.1039    1.0000 </r>
       <r>   -0.0729    1.0000 </r>
       <r>   -0.0301    1.0000 </r>
       <r>    0.5641    1.0000 </r>
       <r>    0.6095    1.0000 </r>
       <r>    0.7438    1.0000 </r>
       <r>    1.2405    1.0000 </r>
       <r>    1.2462    1.0000 </r>
       <r>    1.3866    1.0000 </r>
       <r>    2.4738    1.0000 </r>
       <r>    2.5196    1.0000 </r>
       <r>    2.5643    1.0000 </r>
       <r>    2.8157    1.0000 </r>
       <r>    2.9338    1.0000 </r>
       <r>    3.0228    1.0000 </r>
       <r>    3.7968    1.0000 </r>
       <r>    3.8044    1.0000 </r>
       <r>    3.8183    1.0000 </r>
       <r>    6.4289    0.0000 </r>
       <r>    6.7266    0.0000 </r>
       <r>    6.7487    0.0000 </r>
       <r>    6.9981    0.0000 </r>
       <r>    7.0388    0.0000 </r>
       <r>    7.0478    0.0000 </r>
       <r>    7.7213    0.0000 </r>
       <r>    7.8040    0.0000 </r>
       <r>    7.9355    0.0000 </r>
       <r>    8.7887    0.0000 </r>
       <r>    8.8540    0.0000 </r>
      </set>
      <set comment="kpoint 18">
       <r>   -8.5044    1.0000 </r>
       <r>   -8.4305    1.0000 </r>
       <r>   -8.4248    1.0000 </r>
       <r>   -7.8694    1.0000 </r>
       <r>   -7.8610    1.0000 </r>
       <r>   -7.7646    1.0000 </r>
       <r>   -0.7964    1.0000 </r>
       <r>   -0.6105    1.0000 </r>
       <r>   -0.6064    1.0000 </r>
       <r>    0.3351    1.0000 </r>
       <r>    0.3363    1.0000 </r>
       <r>    0.4773    1.0000 </r>
       <r>    0.5892    1.0000 </r>
       <r>    0.6586    1.0000 </r>
       <r>    0.7289    1.0000 </r>
       <r>    1.7128    1.0000 </r>
       <r>    1.7139    1.0000 </r>
       <r>    1.7394    1.0000 </r>
       <r>    2.7385    1.0000 </r>
       <r>    2.8732    1.0000 </r>
       <r>    2.9988    1.0000 </r>
       <r>    3.0349    1.0000 </r>
       <r>    3.0372    1.0000 </r>
       <r>    3.1947    1.0000 </r>
       <r>    3.4937    1.0000 </r>
       <r>    3.5595    1.0000 </r>
       <r>    3.5892    1.0000 </r>
       <r>    6.4932    0.0000 </r>
       <r>    6.6576    0.0000 </r>
       <r>    6.7223    0.0000 </r>
       <r>    6.7250    0.0000 </r>
       <r>    6.8962    0.0000 </r>
       <r>    6.9083    0.0000 </r>
       <r>    7.7323    0.0000 </r>
       <r>    7.7735    0.0000 </r>
       <r>    8.0651    0.0000 </r>
       <r>    8.4369    0.0000 </r>
       <r>    8.4451    0.0000 </r>
      </set>
      <set comment="kpoint 19">
       <r>   -7.7319    1.0000 </r>
       <r>   -7.7319    1.0000 </r>
       <r>   -7.6980    1.0000 </r>
       <r>   -7.5206    1.0000 </r>
       <r>   -7.4816    1.0000 </r>
       <r>   -7.4816    1.0000 </r>
       <r>   -1.0746    1.0000 </r>
       <r>   -1.0746    1.0000 </r>
       <r>   -1.0170    1.0000 </r>
       <r>   -0.5103    1.0000 </r>
       <r>   -0.4619    1.0000 </r>
       <r>   -0.4619    1.0000 </r>
       <r>    0.4201    1.0000 </r>
       <r>    0.4201    1.0000 </r>
       <r>    0.5793    1.0000 </r>
       <r>    1.2777    1.0000 </r>
       <r>    1.3273    1.0000 </r>
       <r>    1.3273    1.0000 </r>
       <r>    2.4673    1.0000 </r>
       <r>    2.5525    1.0000 </r>
       <r>    2.6183    1.0000 </r>
       <r>    2.6183    1.0000 </r>
       <r>    2.6912    1.0000 </r>
       <r>    2.6912    1.0000 </r>
       <r>    4.0815    1.0000 </r>
       <r>    4.0815    1.0000 </r>
       <r>    4.1384    1.0000 </r>
       <r>    6.6562    0.0000 </r>
       <r>    6.6562    0.0000 </r>
       <r>    6.6889    0.0000 </r>
       <r>    7.3011    0.0000 </r>
       <r>    7.3011    0.0000 </r>
       <r>    7.3765    0.0000 </r>
       <r>    8.1321    0.0000 </r>
       <r>    8.1321    0.0000 </r>
       <r>    8.2686    0.0000 </r>
       <r>    8.5848    0.0000 </r>
       <r>    8.8075    0.0000 </r>
      </set>
      <set comment="kpoint 20">
       <r>   -7.9072    1.0000 </r>
       <r>   -7.8775    1.0000 </r>
       <r>   -7.8540    1.0000 </r>
       <r>   -7.6092    1.0000 </r>
       <r>   -7.5806    1.0000 </r>
       <r>   -7.5471    1.0000 </r>
       <r>   -1.2261    1.0000 </r>
       <r>   -1.1887    1.0000 </r>
       <r>   -1.1479    1.0000 </r>
       <r>   -0.2804    1.0000 </r>
       <r>   -0.2221    1.0000 </r>
       <r>   -0.1694    1.0000 </r>
       <r>    0.3855    1.0000 </r>
       <r>    0.4184    1.0000 </r>
       <r>    0.5584    1.0000 </r>
       <r>    1.3593    1.0000 </r>
       <r>    1.3597    1.0000 </r>
       <r>    1.3877    1.0000 </r>
       <r>    2.4549    1.0000 </r>
       <r>    2.6764    1.0000 </r>
       <r>    2.7949    1.0000 </r>
       <r>    3.4204    1.0000 </r>
       <r>    3.4876    1.0000 </r>
       <r>    3.4886    1.0000 </r>
       <r>    3.6693    1.0000 </r>
       <r>    3.7654    1.0000 </r>
       <r>    3.8026    1.0000 </r>
       <r>    6.6467    0.0000 </r>
       <r>    6.6734    0.0000 </r>
       <r>    6.6735    0.0000 </r>
       <r>    6.9987    0.0000 </r>
       <r>    7.1627    0.0000 </r>
       <r>    7.1707    0.0000 </r>
       <r>    8.1743    0.0000 </r>
       <r>    8.3538    0.0000 </r>
       <r>    8.5003    0.0000 </r>
       <r>    8.6695    0.0000 </r>
       <r>    8.6732    0.0000 </r>
      </set>
     </set>
    </set>
   </array>
  </eigenvalues>
  <separator name="orbital magnetization" >
   <v name="MAGDIPOLOUT">      0.00000000      0.00000000      0.00000000</v>
  </separator>
 </calculation>
 <structure name="finalpos" >
  <crystal>
   <varray name="basis" >
    <v>       1.59215192      -2.75768801       0.00000000 </v>
    <v>       1.59215192       2.75768801       0.00000000 </v>
    <v>       0.00000000       0.00000000      19.44629514 </v>
   </varray>
   <i name="volume">    170.76407233 </i>
   <varray name="rec_basis" >
    <v>       0.31404038      -0.18131130       0.00000000 </v>
    <v>       0.31404038       0.18131130      -0.00000000 </v>
    <v>      -0.00000000       0.00000000       0.05142368 </v>
   </varray>
  </crystal>
  <varray name="positions" >
   <v>       0.66666667       0.33333333       0.33310854 </v>
   <v>       0.33333333       0.66666667       0.66644188 </v>
   <v>      -0.00000000      -0.00000000       0.99977521 </v>
   <v>       0.33333333       0.66666667       0.08002471 </v>
   <v>      -0.00000000      -0.00000000       0.25286775 </v>
   <v>       0.00000000       0.00000000       0.41335804 </v>
   <v>       0.66666667       0.33333333       0.58620108 </v>
   <v>       0.66666667       0.33333333       0.74669137 </v>
   <v>       0.33333333       0.66666667       0.91953442 </v>
  </varray>
 </structure>
</modeling>
