unknown system                          
           1
     1.592152   -2.757688    0.000000
     1.592152    2.757688    0.000000
     0.000000    0.000000   19.446295
   Mo   S 
     3     6
Direct configuration=     1
   0.66666667  0.33333333  0.33310837
   0.33333333  0.66666667  0.66644171
   0.00000000  0.00000000  0.99977504
   0.33333333  0.66666667  0.07959689
   0.00000000  0.00000000  0.25329574
   0.00000000  0.00000000  0.41293022
   0.66666667  0.33333333  0.58662907
   0.66666667  0.33333333  0.74626355
   0.33333333  0.66666667  0.91996241
Direct configuration=     2
   0.66666667  0.33333333  0.33310299
   0.33333333  0.66666667  0.66643632
  -0.00000000  0.00000000  0.99976965
   0.33333333  0.66666667  0.08000395
  -0.00000000 -0.00000000  0.25289406
  -0.00000000  0.00000000  0.41333728
   0.66666667  0.33333333  0.58622740
   0.66666667  0.33333333  0.74667062
   0.33333333  0.66666667  0.91956073
Direct configuration=     3
   0.66666667  0.33333333  0.33310854
   0.33333333  0.66666667  0.66644188
  -0.00000000 -0.00000000  0.99977521
   0.33333333  0.66666667  0.08002471
  -0.00000000 -0.00000000  0.25286775
   0.00000000  0.00000000  0.41335804
   0.66666667  0.33333333  0.58620108
   0.66666667  0.33333333  0.74669137
   0.33333333  0.66666667  0.91953442
