   9   9   0   0
  0.1897379E+02  0.3184304E-09  0.3184304E-09  0.1944630E-08  0.5000000E-15
   1.0000000000000000E-004
  CAR 
 unknown system                          
     10.26710966    -10.55244922  301      4.87137398      1.00000000
    -10.552  0.0000E+00  0.0000E+00  0.0000E+00  0.0000E+00
    -10.483  0.0000E+00  0.0000E+00  0.0000E+00  0.0000E+00
    -10.414  0.0000E+00  0.0000E+00  0.0000E+00  0.0000E+00
    -10.344  0.0000E+00  0.0000E+00  0.0000E+00  0.0000E+00
    -10.275  0.0000E+00  0.0000E+00  0.0000E+00  0.0000E+00
    -10.205  0.0000E+00  0.0000E+00  0.0000E+00  0.0000E+00
    -10.136  0.0000E+00  0.0000E+00  0.0000E+00  0.0000E+00
    -10.067  0.0000E+00  0.0000E+00  0.0000E+00  0.0000E+00
     -9.997  0.0000E+00  0.0000E+00  0.0000E+00  0.0000E+00
     -9.928  0.0000E+00  0.0000E+00  0.0000E+00  0.0000E+00
     -9.858  0.0000E+00  0.0000E+00  0.0000E+00  0.0000E+00
     -9.789  0.0000E+00  0.0000E+00  0.0000E+00  0.0000E+00
     -9.720  0.0000E+00  0.0000E+00  0.0000E+00  0.0000E+00
     -9.650  0.9495E-10  0.9508E-10  0.6590E-11  0.6599E-11
     -9.581  0.4502E+00  0.4502E+00  0.3124E-01  0.3124E-01
     -9.511  0.2687E+00  0.2688E+00  0.4990E-01  0.4991E-01
     -9.442  0.1082E+01  0.1082E+01  0.1250E+00  0.1250E+00
     -9.373  0.9005E+00  0.9005E+00  0.1875E+00  0.1875E+00
     -9.303  0.1600E-01  0.1601E-01  0.1886E+00  0.1886E+00
     -9.234  0.8846E+00  0.8846E+00  0.2500E+00  0.2500E+00
     -9.164  0.2251E+01  0.2251E+01  0.4062E+00  0.4062E+00
     -9.095  0.4554E+00  0.4555E+00  0.4379E+00  0.4379E+00
     -9.026  0.4453E+00  0.4451E+00  0.4688E+00  0.4688E+00
     -8.956  0.9006E+00  0.9006E+00  0.5312E+00  0.5312E+00
     -8.887  0.1798E+01  0.1798E+01  0.6560E+00  0.6560E+00
     -8.817  0.0000E+00  0.0000E+00  0.6562E+00  0.6562E+00
     -8.748  0.1356E-01  0.1357E-01  0.6572E+00  0.6572E+00
     -8.679  0.8873E+00  0.8873E+00  0.7188E+00  0.7188E+00
     -8.609  0.2702E+01  0.2702E+01  0.9063E+00  0.9063E+00
     -8.540  0.1801E+01  0.1801E+01  0.1031E+01  0.1031E+01
     -8.470  0.4503E+00  0.4503E+00  0.1062E+01  0.1062E+01
     -8.401  0.1570E+01  0.1570E+01  0.1171E+01  0.1171E+01
     -8.332  0.2419E+01  0.2419E+01  0.1339E+01  0.1339E+01
     -8.262  0.9024E+00  0.9024E+00  0.1406E+01  0.1406E+01
     -8.193  0.4477E+01  0.4477E+01  0.1717E+01  0.1717E+01
     -8.124  0.9472E+00  0.9472E+00  0.1783E+01  0.1783E+01
     -8.054  0.4946E+01  0.4946E+01  0.2126E+01  0.2126E+01
     -7.985  0.4493E+01  0.4493E+01  0.2439E+01  0.2439E+01
     -7.915  0.6307E+01  0.6307E+01  0.2878E+01  0.2878E+01
     -7.846  0.3312E+01  0.3313E+01  0.3109E+01  0.3109E+01
     -7.777  0.6589E+01  0.6589E+01  0.3567E+01  0.3567E+01
     -7.707  0.4030E+01  0.4030E+01  0.3847E+01  0.3847E+01
     -7.638  0.9771E+01  0.9771E+01  0.4525E+01  0.4525E+01
     -7.568  0.5958E+01  0.5958E+01  0.4943E+01  0.4943E+01
     -7.499  0.6758E+01  0.6758E+01  0.5414E+01  0.5414E+01
     -7.430  0.6056E+01  0.6056E+01  0.5835E+01  0.5835E+01
     -7.360  0.2319E+01  0.2319E+01  0.5999E+01  0.5999E+01
     -7.291  0.0000E+00  0.0000E+00  0.6000E+01  0.6000E+01
     -7.221  0.0000E+00  0.0000E+00  0.6000E+01  0.6000E+01
     -7.152  0.0000E+00  0.0000E+00  0.6000E+01  0.6000E+01
     -7.083  0.0000E+00  0.0000E+00  0.6000E+01  0.6000E+01
     -7.013  0.0000E+00  0.0000E+00  0.6000E+01  0.6000E+01
     -6.944  0.0000E+00  0.0000E+00  0.6000E+01  0.6000E+01
     -6.874  0.0000E+00  0.0000E+00  0.6000E+01  0.6000E+01
     -6.805  0.0000E+00  0.0000E+00  0.6000E+01  0.6000E+01
     -6.736  0.0000E+00  0.0000E+00  0.6000E+01  0.6000E+01
     -6.666  0.0000E+00  0.0000E+00  0.6000E+01  0.6000E+01
     -6.597  0.0000E+00  0.0000E+00  0.6000E+01  0.6000E+01
     -6.527  0.0000E+00  0.0000E+00  0.6000E+01  0.6000E+01
     -6.458  0.0000E+00  0.0000E+00  0.6000E+01  0.6000E+01
     -6.389  0.0000E+00  0.0000E+00  0.6000E+01  0.6000E+01
     -6.319  0.0000E+00  0.0000E+00  0.6000E+01  0.6000E+01
     -6.250  0.0000E+00  0.0000E+00  0.6000E+01  0.6000E+01
     -6.180  0.0000E+00  0.0000E+00  0.6000E+01  0.6000E+01
     -6.111  0.0000E+00  0.0000E+00  0.6000E+01  0.6000E+01
     -6.042  0.0000E+00  0.0000E+00  0.6000E+01  0.6000E+01
     -5.972  0.0000E+00  0.0000E+00  0.6000E+01  0.6000E+01
     -5.903  0.0000E+00  0.0000E+00  0.6000E+01  0.6000E+01
     -5.833  0.0000E+00  0.0000E+00  0.6000E+01  0.6000E+01
     -5.764  0.0000E+00  0.0000E+00  0.6000E+01  0.6000E+01
     -5.695  0.0000E+00  0.0000E+00  0.6000E+01  0.6000E+01
     -5.625  0.0000E+00  0.0000E+00  0.6000E+01  0.6000E+01
     -5.556  0.0000E+00  0.0000E+00  0.6000E+01  0.6000E+01
     -5.486  0.0000E+00  0.0000E+00  0.6000E+01  0.6000E+01
     -5.417  0.0000E+00  0.0000E+00  0.6000E+01  0.6000E+01
     -5.348  0.0000E+00  0.0000E+00  0.6000E+01  0.6000E+01
     -5.278  0.0000E+00  0.0000E+00  0.6000E+01  0.6000E+01
     -5.209  0.0000E+00  0.0000E+00  0.6000E+01  0.6000E+01
     -5.139  0.0000E+00  0.0000E+00  0.6000E+01  0.6000E+01
     -5.070  0.0000E+00  0.0000E+00  0.6000E+01  0.6000E+01
     -5.001  0.0000E+00  0.0000E+00  0.6000E+01  0.6000E+01
     -4.931  0.0000E+00  0.0000E+00  0.6000E+01  0.6000E+01
     -4.862  0.0000E+00  0.0000E+00  0.6000E+01  0.6000E+01
     -4.792  0.0000E+00  0.0000E+00  0.6000E+01  0.6000E+01
     -4.723  0.0000E+00  0.0000E+00  0.6000E+01  0.6000E+01
     -4.654  0.0000E+00  0.0000E+00  0.6000E+01  0.6000E+01
     -4.584  0.0000E+00  0.0000E+00  0.6000E+01  0.6000E+01
     -4.515  0.0000E+00  0.0000E+00  0.6000E+01  0.6000E+01
     -4.445  0.0000E+00  0.0000E+00  0.6000E+01  0.6000E+01
     -4.376  0.0000E+00  0.0000E+00  0.6000E+01  0.6000E+01
     -4.307  0.0000E+00  0.0000E+00  0.6000E+01  0.6000E+01
     -4.237  0.0000E+00  0.0000E+00  0.6000E+01  0.6000E+01
     -4.168  0.0000E+00  0.0000E+00  0.6000E+01  0.6000E+01
     -4.098  0.0000E+00  0.0000E+00  0.6000E+01  0.6000E+01
     -4.029  0.0000E+00  0.0000E+00  0.6000E+01  0.6000E+01
     -3.960  0.0000E+00  0.0000E+00  0.6000E+01  0.6000E+01
     -3.890  0.0000E+00  0.0000E+00  0.6000E+01  0.6000E+01
     -3.821  0.0000E+00  0.0000E+00  0.6000E+01  0.6000E+01
     -3.751  0.0000E+00  0.0000E+00  0.6000E+01  0.6000E+01
     -3.682  0.0000E+00  0.0000E+00  0.6000E+01  0.6000E+01
     -3.613  0.0000E+00  0.0000E+00  0.6000E+01  0.6000E+01
     -3.543  0.0000E+00  0.0000E+00  0.6000E+01  0.6000E+01
     -3.474  0.0000E+00  0.0000E+00  0.6000E+01  0.6000E+01
     -3.404  0.0000E+00  0.0000E+00  0.6000E+01  0.6000E+01
     -3.335  0.0000E+00  0.0000E+00  0.6000E+01  0.6000E+01
     -3.266  0.0000E+00  0.0000E+00  0.6000E+01  0.6000E+01
     -3.196  0.0000E+00  0.0000E+00  0.6000E+01  0.6000E+01
     -3.127  0.0000E+00  0.0000E+00  0.6000E+01  0.6000E+01
     -3.057  0.0000E+00  0.0000E+00  0.6000E+01  0.6000E+01
     -2.988  0.0000E+00  0.0000E+00  0.6000E+01  0.6000E+01
     -2.919  0.0000E+00  0.0000E+00  0.6000E+01  0.6000E+01
     -2.849  0.0000E+00  0.0000E+00  0.6000E+01  0.6000E+01
     -2.780  0.0000E+00  0.0000E+00  0.6000E+01  0.6000E+01
     -2.710  0.0000E+00  0.0000E+00  0.6000E+01  0.6000E+01
     -2.641  0.0000E+00  0.0000E+00  0.6000E+01  0.6000E+01
     -2.572  0.0000E+00  0.0000E+00  0.6000E+01  0.6000E+01
     -2.502  0.0000E+00  0.0000E+00  0.6000E+01  0.6000E+01
     -2.433  0.0000E+00  0.0000E+00  0.6000E+01  0.6000E+01
     -2.363  0.0000E+00  0.0000E+00  0.6000E+01  0.6000E+01
     -2.294  0.0000E+00  0.0000E+00  0.6000E+01  0.6000E+01
     -2.225  0.0000E+00  0.0000E+00  0.6000E+01  0.6000E+01
     -2.155  0.0000E+00  0.0000E+00  0.6000E+01  0.6000E+01
     -2.086  0.0000E+00  0.0000E+00  0.6000E+01  0.6000E+01
     -2.016  0.0000E+00  0.0000E+00  0.6000E+01  0.6000E+01
     -1.947  0.0000E+00  0.0000E+00  0.6000E+01  0.6000E+01
     -1.878  0.0000E+00  0.0000E+00  0.6000E+01  0.6000E+01
     -1.808  0.0000E+00  0.0000E+00  0.6000E+01  0.6000E+01
     -1.739  0.0000E+00  0.0000E+00  0.6000E+01  0.6000E+01
     -1.669  0.0000E+00  0.0000E+00  0.6000E+01  0.6000E+01
     -1.600  0.0000E+00  0.0000E+00  0.6000E+01  0.6000E+01
     -1.531  0.0000E+00  0.0000E+00  0.6000E+01  0.6000E+01
     -1.461  0.0000E+00  0.0000E+00  0.6000E+01  0.6000E+01
     -1.392  0.2822E-01  0.2813E-01  0.6002E+01  0.6002E+01
     -1.322  0.4221E+00  0.4222E+00  0.6031E+01  0.6031E+01
     -1.253  0.2942E+00  0.2939E+00  0.6052E+01  0.6052E+01
     -1.184  0.2750E+01  0.2751E+01  0.6243E+01  0.6243E+01
     -1.114  0.1459E+01  0.1458E+01  0.6344E+01  0.6344E+01
     -1.045  0.1891E+01  0.1891E+01  0.6475E+01  0.6475E+01
     -0.975  0.3061E+01  0.3061E+01  0.6687E+01  0.6687E+01
     -0.906  0.1363E+01  0.1363E+01  0.6782E+01  0.6782E+01
     -0.837  0.3174E+01  0.3174E+01  0.7003E+01  0.7003E+01
     -0.767  0.6647E+01  0.6647E+01  0.7464E+01  0.7464E+01
     -0.698  0.8804E+01  0.8804E+01  0.8075E+01  0.8075E+01
     -0.628  0.2244E+01  0.2243E+01  0.8232E+01  0.8232E+01
     -0.559  0.7459E+01  0.7458E+01  0.8750E+01  0.8750E+01
     -0.490  0.2929E+01  0.2930E+01  0.8953E+01  0.8953E+01
     -0.420  0.5332E+01  0.5332E+01  0.9325E+01  0.9325E+01
     -0.351  0.5677E+01  0.5677E+01  0.9719E+01  0.9719E+01
     -0.281  0.1997E+01  0.1997E+01  0.9857E+01  0.9857E+01
     -0.212  0.1127E+01  0.1127E+01  0.9936E+01  0.9936E+01
     -0.143  0.3008E+01  0.3008E+01  0.1014E+02  0.1014E+02
     -0.073  0.2330E+01  0.2330E+01  0.1031E+02  0.1031E+02
     -0.004  0.3492E+01  0.3492E+01  0.1055E+02  0.1055E+02
      0.066  0.6502E+00  0.6495E+00  0.1059E+02  0.1059E+02
      0.135  0.9341E-01  0.9349E-01  0.1060E+02  0.1060E+02
      0.204  0.1708E+01  0.1708E+01  0.1072E+02  0.1072E+02
      0.274  0.1272E-03  0.1276E-03  0.1072E+02  0.1072E+02
      0.343  0.1667E+01  0.1667E+01  0.1083E+02  0.1083E+02
      0.413  0.2600E+01  0.2600E+01  0.1101E+02  0.1101E+02
      0.482  0.3345E+01  0.3345E+01  0.1125E+02  0.1125E+02
      0.551  0.8659E+01  0.8659E+01  0.1185E+02  0.1185E+02
      0.621  0.5777E+01  0.5777E+01  0.1225E+02  0.1225E+02
      0.690  0.6734E+01  0.6734E+01  0.1272E+02  0.1272E+02
      0.760  0.6598E+01  0.6599E+01  0.1318E+02  0.1318E+02
      0.829  0.7217E+01  0.7216E+01  0.1368E+02  0.1368E+02
      0.898  0.7917E-06  0.7906E-06  0.1369E+02  0.1369E+02
      0.968  0.3369E+01  0.3369E+01  0.1392E+02  0.1392E+02
      1.037  0.1994E+01  0.1994E+01  0.1406E+02  0.1406E+02
      1.107  0.3110E-01  0.3113E-01  0.1406E+02  0.1406E+02
      1.176  0.7025E+01  0.7025E+01  0.1455E+02  0.1455E+02
      1.245  0.3893E+01  0.3894E+01  0.1482E+02  0.1482E+02
      1.315  0.4935E+01  0.4936E+01  0.1517E+02  0.1517E+02
      1.384  0.1044E+02  0.1044E+02  0.1589E+02  0.1589E+02
      1.453  0.6502E+01  0.6501E+01  0.1635E+02  0.1635E+02
      1.523  0.5974E+01  0.5975E+01  0.1676E+02  0.1676E+02
      1.592  0.2504E+01  0.2504E+01  0.1693E+02  0.1693E+02
      1.662  0.1500E+01  0.1501E+01  0.1704E+02  0.1704E+02
      1.731  0.3151E+01  0.3152E+01  0.1726E+02  0.1726E+02
      1.800  0.1707E+01  0.1705E+01  0.1738E+02  0.1738E+02
      1.870  0.2197E+01  0.2196E+01  0.1753E+02  0.1753E+02
      1.939  0.4098E+01  0.4099E+01  0.1782E+02  0.1782E+02
      2.009  0.4732E+01  0.4731E+01  0.1816E+02  0.1816E+02
      2.078  0.2254E+01  0.2254E+01  0.1831E+02  0.1831E+02
      2.147  0.2679E+01  0.2679E+01  0.1850E+02  0.1850E+02
      2.217  0.4439E-06  0.4481E-06  0.1850E+02  0.1850E+02
      2.286  0.2701E+01  0.2701E+01  0.1869E+02  0.1869E+02
      2.356  0.4258E+01  0.4258E+01  0.1898E+02  0.1898E+02
      2.425  0.4285E+01  0.4285E+01  0.1928E+02  0.1928E+02
      2.494  0.2703E+01  0.2703E+01  0.1947E+02  0.1947E+02
      2.564  0.7055E+01  0.7055E+01  0.1996E+02  0.1996E+02
      2.633  0.6435E+01  0.6435E+01  0.2041E+02  0.2041E+02
      2.703  0.5130E+01  0.5131E+01  0.2076E+02  0.2076E+02
      2.772  0.5210E+01  0.5210E+01  0.2113E+02  0.2113E+02
      2.841  0.4789E+01  0.4788E+01  0.2146E+02  0.2146E+02
      2.911  0.3665E+01  0.3665E+01  0.2172E+02  0.2172E+02
      2.980  0.2966E+01  0.2966E+01  0.2192E+02  0.2192E+02
      3.050  0.4838E+01  0.4838E+01  0.2226E+02  0.2226E+02
      3.119  0.4674E+01  0.4674E+01  0.2259E+02  0.2259E+02
      3.188  0.4029E+01  0.4029E+01  0.2287E+02  0.2287E+02
      3.258  0.3962E+01  0.3962E+01  0.2314E+02  0.2314E+02
      3.327  0.3110E+01  0.3110E+01  0.2336E+02  0.2336E+02
      3.397  0.2490E+01  0.2491E+01  0.2353E+02  0.2353E+02
      3.466  0.1785E+01  0.1785E+01  0.2366E+02  0.2366E+02
      3.535  0.1350E+01  0.1350E+01  0.2375E+02  0.2375E+02
      3.605  0.1746E+01  0.1747E+01  0.2387E+02  0.2387E+02
      3.674  0.5466E+01  0.5466E+01  0.2425E+02  0.2425E+02
      3.744  0.4671E+01  0.4671E+01  0.2458E+02  0.2458E+02
      3.813  0.8375E+01  0.8375E+01  0.2516E+02  0.2516E+02
      3.882  0.3092E+01  0.3091E+01  0.2538E+02  0.2538E+02
      3.952  0.3312E+01  0.3313E+01  0.2560E+02  0.2560E+02
      4.021  0.6443E+01  0.6443E+01  0.2605E+02  0.2605E+02
      4.091  0.1196E+01  0.1196E+01  0.2614E+02  0.2614E+02
      4.160  0.1760E+01  0.1761E+01  0.2626E+02  0.2626E+02
      4.229  0.5355E+01  0.5355E+01  0.2663E+02  0.2663E+02
      4.299  0.3516E+00  0.3510E+00  0.2666E+02  0.2666E+02
      4.368  0.1071E+01  0.1072E+01  0.2673E+02  0.2673E+02
      4.438  0.2018E+01  0.2018E+01  0.2687E+02  0.2687E+02
      4.507  0.6100E-01  0.6079E-01  0.2688E+02  0.2688E+02
      4.576  0.0000E+00  0.0000E+00  0.2688E+02  0.2688E+02
      4.646  0.1051E-02  0.1055E-02  0.2688E+02  0.2688E+02
      4.715  0.8995E+00  0.8995E+00  0.2694E+02  0.2694E+02
      4.785  0.4557E-04  0.4575E-04  0.2694E+02  0.2694E+02
      4.854  0.9005E+00  0.9005E+00  0.2700E+02  0.2700E+02
      4.923  0.0000E+00  0.0000E+00  0.2700E+02  0.2700E+02
      4.993  0.0000E+00  0.0000E+00  0.2700E+02  0.2700E+02
      5.062  0.0000E+00  0.0000E+00  0.2700E+02  0.2700E+02
      5.132  0.0000E+00  0.0000E+00  0.2700E+02  0.2700E+02
      5.201  0.0000E+00  0.0000E+00  0.2700E+02  0.2700E+02
      5.270  0.0000E+00  0.0000E+00  0.2700E+02  0.2700E+02
      5.340  0.0000E+00  0.0000E+00  0.2700E+02  0.2700E+02
      5.409  0.0000E+00  0.0000E+00  0.2700E+02  0.2700E+02
      5.479  0.0000E+00  0.0000E+00  0.2700E+02  0.2700E+02
      5.548  0.0000E+00  0.0000E+00  0.2700E+02  0.2700E+02
      5.617  0.0000E+00  0.0000E+00  0.2700E+02  0.2700E+02
      5.687  0.0000E+00  0.0000E+00  0.2700E+02  0.2700E+02
      5.756  0.0000E+00  0.0000E+00  0.2700E+02  0.2700E+02
      5.826  0.0000E+00  0.0000E+00  0.2700E+02  0.2700E+02
      5.895  0.0000E+00  0.0000E+00  0.2700E+02  0.2700E+02
      5.964  0.0000E+00  0.0000E+00  0.2700E+02  0.2700E+02
      6.034  0.0000E+00  0.0000E+00  0.2700E+02  0.2700E+02
      6.103  0.0000E+00  0.0000E+00  0.2700E+02  0.2700E+02
      6.173  0.4184E+00  0.4184E+00  0.2703E+02  0.2703E+02
      6.242  0.2283E+01  0.2283E+01  0.2719E+02  0.2719E+02
      6.311  0.3959E+00  0.3958E+00  0.2721E+02  0.2721E+02
      6.381  0.2633E+01  0.2634E+01  0.2740E+02  0.2740E+02
      6.450  0.1972E+01  0.1972E+01  0.2754E+02  0.2754E+02
      6.520  0.4613E+01  0.4613E+01  0.2786E+02  0.2786E+02
      6.589  0.4778E+01  0.4778E+01  0.2819E+02  0.2819E+02
      6.658  0.4880E+01  0.4881E+01  0.2853E+02  0.2853E+02
      6.728  0.1223E+02  0.1223E+02  0.2938E+02  0.2938E+02
      6.797  0.3963E+01  0.3960E+01  0.2966E+02  0.2966E+02
      6.867  0.3883E+01  0.3884E+01  0.2993E+02  0.2993E+02
      6.936  0.8122E+01  0.8123E+01  0.3049E+02  0.3049E+02
      7.005  0.6306E+01  0.6306E+01  0.3093E+02  0.3093E+02
      7.075  0.8632E+01  0.8631E+01  0.3153E+02  0.3153E+02
      7.144  0.4350E+01  0.4351E+01  0.3183E+02  0.3183E+02
      7.214  0.7835E+01  0.7864E+01  0.3237E+02  0.3237E+02
      7.283  0.6565E+01  0.6553E+01  0.3283E+02  0.3283E+02
      7.352  0.5255E+01  0.5426E+01  0.3320E+02  0.3321E+02
      7.422  0.4148E+01  0.3942E+01  0.3349E+02  0.3349E+02
      7.491  0.7258E+01  0.7326E+01  0.3400E+02  0.3400E+02
      7.561  0.3607E+01  0.3706E+01  0.3425E+02  0.3426E+02
      7.630  0.9007E+00  0.7967E+00  0.3431E+02  0.3431E+02
      7.699  0.2911E+01  0.2910E+01  0.3451E+02  0.3451E+02
      7.769  0.3174E+01  0.3176E+01  0.3473E+02  0.3473E+02
      7.838  0.7336E+01  0.7336E+01  0.3525E+02  0.3525E+02
      7.908  0.2495E+01  0.2417E+01  0.3542E+02  0.3542E+02
      7.977  0.2458E+01  0.2537E+01  0.3559E+02  0.3559E+02
      8.046  0.9809E+00  0.9856E+00  0.3566E+02  0.3566E+02
      8.116  0.2949E+01  0.2950E+01  0.3587E+02  0.3587E+02
      8.185  0.1444E+01  0.1449E+01  0.3597E+02  0.3597E+02
      8.255  0.1779E+01  0.1794E+01  0.3609E+02  0.3609E+02
      8.324  0.1412E+01  0.1402E+01  0.3619E+02  0.3619E+02
      8.393  0.2181E+01  0.2198E+01  0.3634E+02  0.3634E+02
      8.463  0.4930E+00  0.6057E+00  0.3638E+02  0.3639E+02
      8.532  0.3589E+01  0.3447E+01  0.3663E+02  0.3662E+02
      8.602  0.2195E+01  0.1954E+01  0.3678E+02  0.3676E+02
      8.671  0.2797E+01  0.2433E+01  0.3698E+02  0.3693E+02
      8.740  0.3288E+01  0.3933E+01  0.3720E+02  0.3720E+02
      8.810  0.2129E+01  0.1126E+01  0.3735E+02  0.3728E+02
      8.879  0.1854E+01  0.2249E+01  0.3748E+02  0.3744E+02
      8.949  0.2081E+01  0.2700E+01  0.3763E+02  0.3762E+02
      9.018  0.8593E+00  0.8926E+00  0.3769E+02  0.3769E+02
      9.087  0.1801E+01  0.1801E+01  0.3781E+02  0.3781E+02
      9.157  0.9006E+00  0.9006E+00  0.3788E+02  0.3787E+02
      9.226  0.9006E+00  0.8987E+00  0.3794E+02  0.3794E+02
      9.296  0.4493E+00  0.7645E+00  0.3797E+02  0.3799E+02
      9.365  0.4502E+00  0.1350E+00  0.3800E+02  0.3800E+02
      9.434  0.0000E+00  0.0000E+00  0.3800E+02  0.3800E+02
      9.504  0.0000E+00  0.0000E+00  0.3800E+02  0.3800E+02
      9.573  0.0000E+00  0.0000E+00  0.3800E+02  0.3800E+02
      9.643  0.0000E+00  0.0000E+00  0.3800E+02  0.3800E+02
      9.712  0.0000E+00  0.0000E+00  0.3800E+02  0.3800E+02
      9.781  0.0000E+00  0.0000E+00  0.3800E+02  0.3800E+02
      9.851  0.0000E+00  0.0000E+00  0.3800E+02  0.3800E+02
      9.920  0.0000E+00  0.0000E+00  0.3800E+02  0.3800E+02
      9.990  0.0000E+00  0.0000E+00  0.3800E+02  0.3800E+02
     10.059  0.0000E+00  0.0000E+00  0.3800E+02  0.3800E+02
     10.128  0.0000E+00  0.0000E+00  0.3800E+02  0.3800E+02
     10.198  0.0000E+00  0.0000E+00  0.3800E+02  0.3800E+02
     10.267  0.0000E+00  0.0000E+00  0.3800E+02  0.3800E+02
