<?xml version="1.0" encoding="ISO-8859-1"?>
<modeling>
 <generator>
  <i name="program" type="string">vasp </i>
  <i name="version" type="string">6.2.0  </i>
  <i name="subversion" type="string">18Jan21 (build Jul 28 2023 11:58:00) complex                          parallel </i>
  <i name="platform" type="string">LinuxGNU </i>
  <i name="date" type="string">2025 02 13 </i>
  <i name="time" type="string">08:14:10 </i>
 </generator>
 <incar>
  <i type="string" name="PREC">Accurate</i>
  <i type="string" name="ALGO">Fast</i>
  <i type="int" name="ISPIN">     2</i>
  <i type="int" name="NELM">   100</i>
  <i name="EDIFF">      0.00000010</i>
  <i name="ENMAX">    500.00000000</i>
  <i type="int" name="ISMEAR">     0</i>
  <i name="SIGMA">      0.01000000</i>
  <i type="int" name="IVDW">    12</i>
 </incar>
 <primitive_cell>
  <structure name="primitive_cell" >
   <crystal>
    <varray name="basis" >
     <v>       0.00000000      -1.83845867      -6.48209838 </v>
     <v>      -1.59215192       0.91922934      -6.48209838 </v>
     <v>       1.59215192       0.91922934      -6.48209838 </v>
    </varray>
    <i name="volume">     56.92135744 </i>
    <varray name="rec_basis" >
     <v>      -0.00000000      -0.36262260      -0.05142368 </v>
     <v>      -0.31404038       0.18131130      -0.05142368 </v>
     <v>       0.31404038       0.18131130      -0.05142368 </v>
    </varray>
   </crystal>
   <varray name="positions" >
    <v>       0.00022479       0.00022479       0.00022479 </v>
    <v>       0.58664196       0.58664196       0.58664196 </v>
    <v>       0.74713225       0.74713225       0.74713225 </v>
   </varray>
  </structure>
  <varray name="primitive_index" >
   <v type="int" >        1 </v>
   <v type="int" >        8 </v>
   <v type="int" >        7 </v>
  </varray>
 </primitive_cell>
 <kpoints>
  <generation param="Monkhorst-Pack">
   <v type="int" name="divisions">       8        8        1 </v>
   <v name="usershift">      0.00000000       0.00000000       0.00000000 </v>
   <v name="genvec1">      0.12500000      -0.00000000       0.00000000 </v>
   <v name="genvec2">     -0.00000000       0.12500000       0.00000000 </v>
   <v name="genvec3">      0.00000000       0.00000000       1.00000000 </v>
   <v name="shift">      0.50000000       0.50000000       0.00000000 </v>
  </generation>
  <varray name="kpointlist" >
   <v>       0.06250000       0.06250000       0.00000000 </v>
   <v>       0.18750000       0.06250000       0.00000000 </v>
   <v>       0.31250000       0.06250000       0.00000000 </v>
   <v>       0.43750000       0.06250000       0.00000000 </v>
   <v>      -0.43750000       0.06250000       0.00000000 </v>
   <v>      -0.31250000       0.06250000       0.00000000 </v>
   <v>      -0.18750000       0.06250000       0.00000000 </v>
   <v>      -0.06250000       0.06250000       0.00000000 </v>
   <v>       0.18750000       0.18750000       0.00000000 </v>
   <v>       0.31250000       0.18750000       0.00000000 </v>
   <v>       0.43750000       0.18750000       0.00000000 </v>
   <v>      -0.43750000       0.18750000       0.00000000 </v>
   <v>      -0.31250000       0.18750000       0.00000000 </v>
   <v>      -0.18750000       0.18750000       0.00000000 </v>
   <v>       0.31250000       0.31250000       0.00000000 </v>
   <v>       0.43750000       0.31250000       0.00000000 </v>
   <v>      -0.43750000       0.31250000       0.00000000 </v>
   <v>      -0.31250000       0.31250000       0.00000000 </v>
   <v>       0.43750000       0.43750000       0.00000000 </v>
   <v>      -0.43750000       0.43750000       0.00000000 </v>
  </varray>
  <varray name="weights" >
   <v>       0.03125000 </v>
   <v>       0.06250000 </v>
   <v>       0.06250000 </v>
   <v>       0.06250000 </v>
   <v>       0.06250000 </v>
   <v>       0.06250000 </v>
   <v>       0.06250000 </v>
   <v>       0.03125000 </v>
   <v>       0.03125000 </v>
   <v>       0.06250000 </v>
   <v>       0.06250000 </v>
   <v>       0.06250000 </v>
   <v>       0.06250000 </v>
   <v>       0.03125000 </v>
   <v>       0.03125000 </v>
   <v>       0.06250000 </v>
   <v>       0.06250000 </v>
   <v>       0.03125000 </v>
   <v>       0.03125000 </v>
   <v>       0.03125000 </v>
  </varray>
 </kpoints>
 <parameters>
  <separator name="general" >
   <i type="string" name="SYSTEM">unknown system</i>
   <i type="logical" name="LCOMPAT"> F  </i>
  </separator>
  <separator name="electronic" >
   <i type="string" name="PREC">accura</i>
   <i name="ENMAX">    500.00000000</i>
   <i name="ENAUG">    345.27800000</i>
   <i name="EDIFF">      0.00000010</i>
   <i type="int" name="IALGO">    68</i>
   <i type="int" name="IWAVPR">    10</i>
   <i type="int" name="NBANDS">    38</i>
   <i type="int" name="NBANDSLOW">    -1</i>
   <i type="int" name="NBANDSHIGH">    -1</i>
   <i name="NELECT">     54.00000000</i>
   <i type="int" name="TURBO">     0</i>
   <i type="int" name="IRESTART">     0</i>
   <i type="int" name="NREBOOT">     0</i>
   <i type="int" name="NMIN">     0</i>
   <i name="EREF">      0.00000000</i>
   <separator name="electronic smearing" >
    <i type="int" name="ISMEAR">     0</i>
    <i name="SIGMA">      0.01000000</i>
    <i name="KSPACING">      0.50000000</i>
    <i type="logical" name="KGAMMA"> T  </i>
    <i type="logical" name="KBLOWUP"> T  </i>
   </separator>
   <separator name="electronic projectors" >
    <i type="logical" name="LREAL"> F  </i>
    <v name="ROPT">      0.00000000      0.00000000</v>
    <i type="int" name="LMAXPAW">  -100</i>
    <i type="int" name="LMAXMIX">     2</i>
    <i type="logical" name="NLSPLINE"> F  </i>
   </separator>
   <separator name="electronic startup" >
    <i type="int" name="ISTART">     0</i>
    <i type="int" name="ICHARG">     2</i>
    <i type="int" name="INIWAV">     1</i>
   </separator>
   <separator name="electronic spin" >
    <i type="int" name="ISPIN">     2</i>
    <i type="logical" name="LNONCOLLINEAR"> F  </i>
    <v name="MAGMOM">      1.00000000      1.00000000      1.00000000      1.00000000      1.00000000      1.00000000      1.00000000      1.00000000      1.00000000</v>
    <i name="NUPDOWN">     -1.00000000</i>
    <i type="logical" name="LSORBIT"> F  </i>
    <v name="SAXIS">      0.00000000      0.00000000      1.00000000</v>
    <i type="logical" name="LSPIRAL"> F  </i>
    <v name="QSPIRAL">      0.00000000      0.00000000      0.00000000</v>
    <i type="logical" name="LZEROZ"> F  </i>
   </separator>
   <separator name="electronic exchange-correlation" >
    <i type="logical" name="LASPH"> F  </i>
    <i type="logical" name="LMETAGGA"> F  </i>
   </separator>
   <separator name="electronic convergence" >
    <i type="int" name="NELM">   100</i>
    <i type="int" name="NELMDL">    -5</i>
    <i type="int" name="NELMIN">     2</i>
    <i name="ENINI">    500.00000000</i>
    <separator name="electronic convergence detail" >
     <i type="logical" name="LDIAG"> T  </i>
     <i type="logical" name="LSUBROT"> F  </i>
     <i name="WEIMIN">      0.00000000</i>
     <i name="EBREAK">      0.00000000</i>
     <i name="DEPER">      0.30000000</i>
     <i type="int" name="NRMM">     4</i>
     <i name="TIME">      0.40000000</i>
    </separator>
   </separator>
   <separator name="electronic mixer" >
    <i name="AMIX">      0.40000000</i>
    <i name="BMIX">      1.00000000</i>
    <i name="AMIN">      0.10000000</i>
    <i name="AMIX_MAG">      1.60000000</i>
    <i name="BMIX_MAG">      1.00000000</i>
    <separator name="electronic mixer details" >
     <i type="int" name="IMIX">     4</i>
     <i type="logical" name="MIXFIRST"> F  </i>
     <i type="int" name="MAXMIX">   -45</i>
     <i name="WC">    100.00000000</i>
     <i type="int" name="INIMIX">     1</i>
     <i type="int" name="MIXPRE">     1</i>
     <i type="int" name="MREMOVE">     5</i>
    </separator>
   </separator>
   <separator name="electronic dipolcorrection" >
    <i type="logical" name="LDIPOL"> F  </i>
    <i type="logical" name="LMONO"> F  </i>
    <i type="int" name="IDIPOL">     0</i>
    <i name="EPSILON">      1.00000000</i>
    <v name="DIPOL">   -100.00000000   -100.00000000   -100.00000000</v>
    <i name="EFIELD">      0.00000000</i>
   </separator>
  </separator>
  <separator name="grids" >
   <i type="int" name="NGX">    24</i>
   <i type="int" name="NGY">    24</i>
   <i type="int" name="NGZ">   144</i>
   <i type="int" name="NGXF">    48</i>
   <i type="int" name="NGYF">    48</i>
   <i type="int" name="NGZF">   288</i>
   <i type="logical" name="ADDGRID"> F  </i>
  </separator>
  <separator name="ionic" >
   <i type="int" name="NSW">     0</i>
   <i type="int" name="IBRION">    -1</i>
   <i type="int" name="MDALGO">     0</i>
   <i type="int" name="ISIF">     2</i>
   <i name="PSTRESS">      0.00000000</i>
   <i name="EDIFFG">      0.00000100</i>
   <i type="int" name="NFREE">     0</i>
   <i name="POTIM">      0.50000000</i>
   <i name="SMASS">     -3.00000000</i>
   <i name="SCALEE">      1.00000000</i>
  </separator>
  <separator name="ionic md" >
   <i name="TEBEG">      0.00010000</i>
   <i name="TEEND">      0.00010000</i>
   <i type="int" name="NBLOCK">     1</i>
   <i type="int" name="KBLOCK">     1</i>
   <i type="int" name="NPACO">   256</i>
   <i name="APACO">     16.00000000</i>
  </separator>
  <separator name="symmetry" >
   <i type="int" name="ISYM">     2</i>
   <i name="SYMPREC">      0.00001000</i>
  </separator>
  <separator name="dos" >
   <i type="int" name="LORBIT">     0</i>
   <v name="RWIGS">     -1.00000000     -1.00000000</v>
   <i type="int" name="NEDOS">   301</i>
   <i name="EMIN">     10.00000000</i>
   <i name="EMAX">    -10.00000000</i>
   <i name="EFERMI">      0.00000000</i>
  </separator>
  <separator name="writing" >
   <i type="int" name="NWRITE">     2</i>
   <i type="logical" name="LWAVE"> T  </i>
   <i type="logical" name="LDOWNSAMPLE"> F  </i>
   <i type="logical" name="LCHARG"> T  </i>
   <i type="logical" name="LPARD"> F  </i>
   <i type="logical" name="LVTOT"> F  </i>
   <i type="logical" name="LVHAR"> F  </i>
   <i type="logical" name="LELF"> F  </i>
   <i type="logical" name="LOPTICS"> F  </i>
   <v name="STM">      0.00000000      0.00000000      0.00000000      0.00000000      0.00000000      0.00000000      0.00000000</v>
  </separator>
  <separator name="performance" >
   <i type="int" name="NPAR">     2</i>
   <i type="int" name="NSIM">     4</i>
   <i type="int" name="NBLK">    -1</i>
   <i type="logical" name="LPLANE"> T  </i>
   <i type="logical" name="LSCALAPACK"> T  </i>
   <i type="logical" name="LSCAAWARE"> F  </i>
   <i type="logical" name="LSCALU"> F  </i>
   <i type="logical" name="LASYNC"> F  </i>
   <i type="logical" name="LORBITALREAL"> F  </i>
  </separator>
  <separator name="miscellaneous" >
   <i type="int" name="IDIOT">     3</i>
   <i type="int" name="PHON_NSTRUCT">    -1</i>
   <i type="logical" name="LMUSIC"> F  </i>
   <v name="POMASS">     95.94000000     32.06600000</v>
   <v name="DARWINR">      0.00000000      0.00000000</v>
   <v name="DARWINV">      1.00000000      1.00000000</v>
   <i type="logical" name="LCORR"> T  </i>
  </separator>
  <i type="logical" name="GGA_COMPAT"> T  </i>
  <i type="logical" name="LBERRY"> F  </i>
  <i type="int" name="ICORELEVEL">     0</i>
  <i type="logical" name="LDAU"> F  </i>
  <i type="int" name="I_CONSTRAINED_M">     0</i>
  <separator name="electronic exchange-correlation" >
   <i type="string" name="GGA">--</i>
   <i type="int" name="VOSKOWN">     0</i>
   <i type="logical" name="LHFCALC"> F  </i>
   <i type="string" name="PRECFOCK"></i>
   <i type="logical" name="LSYMGRAD"> F  </i>
   <i type="logical" name="LHFONE"> F  </i>
   <i type="logical" name="LRHFCALC"> F  </i>
   <i type="logical" name="LTHOMAS"> F  </i>
   <i type="logical" name="LMODELHF"> F  </i>
   <i type="logical" name="LFOCKACE"> F  </i>
   <i name="ENCUT4O">     -1.00000000</i>
   <i type="int" name="EXXOEP">     0</i>
   <i type="int" name="FOURORBIT">     0</i>
   <i name="AEXX">      0.00000000</i>
   <i name="HFALPHA">      0.00000000</i>
   <i name="MCALPHA">      0.00000000</i>
   <i name="ALDAX">      1.00000000</i>
   <i name="AGGAX">      1.00000000</i>
   <i name="ALDAC">      1.00000000</i>
   <i name="AGGAC">      1.00000000</i>
   <i type="int" name="NKREDX">     1</i>
   <i type="int" name="NKREDY">     1</i>
   <i type="int" name="NKREDZ">     1</i>
   <i type="logical" name="SHIFTRED"> F  </i>
   <i type="logical" name="ODDONLY"> F  </i>
   <i type="logical" name="EVENONLY"> F  </i>
   <i type="int" name="LMAXFOCK">     0</i>
   <i type="int" name="NMAXFOCKAE">     0</i>
   <i type="logical" name="LFOCKAEDFT"> F  </i>
   <i name="HFSCREEN">      0.00000000</i>
   <i name="HFSCREENC">      0.00000000</i>
   <i type="int" name="NBANDSGWLOW">     0</i>
  </separator>
  <separator name="vdW DFT" >
   <i type="logical" name="LUSE_VDW"> F  </i>
   <i name="Zab_VDW">     -0.84910000</i>
   <i name="PARAM1">      0.12340000</i>
   <i name="PARAM2">      1.00000000</i>
   <i name="PARAM3">      0.00000000</i>
  </separator>
  <separator name="model GW" >
   <i type="int" name="MODEL_GW">     0</i>
   <i name="MODEL_EPS0">     11.38427149</i>
   <i name="MODEL_ALPHA">      1.00000000</i>
  </separator>
  <separator name="linear response parameters" >
   <i type="logical" name="LEPSILON"> F  </i>
   <i type="logical" name="LRPA"> F  </i>
   <i type="logical" name="LNABLA"> F  </i>
   <i type="logical" name="LVEL"> F  </i>
   <i type="int" name="KINTER">     0</i>
   <i name="CSHIFT">      0.10000000</i>
   <i name="OMEGAMAX">     -1.00000000</i>
   <i name="DEG_THRESHOLD">      0.00200000</i>
   <i name="RTIME">     -0.10000000</i>
   <i name="WPLASMAI">      0.00000000</i>
   <v name="DFIELD">      0.00000000      0.00000000      0.00000000</v>
   <v name="WPLASMA">      0.00000000      0.00000000      0.00000000      0.00000000      0.00000000      0.00000000      0.00000000      0.00000000      0.00000000</v>
  </separator>
  <separator name="orbital magnetization" >
   <i type="logical" name="NUCIND"> F  </i>
   <v name="MAGPOS">      0.00000000      0.00000000      0.00000000</v>
   <i type="logical" name="LNICSALL"> T  </i>
   <i type="logical" name="ORBITALMAG"> F  </i>
   <i type="logical" name="LMAGBLOCH"> F  </i>
   <i type="logical" name="LCHIMAG"> F  </i>
   <i type="logical" name="LGAUGE"> T  </i>
   <i type="int" name="MAGATOM">     0</i>
   <v name="MAGDIPOL">      0.00000000      0.00000000      0.00000000</v>
   <v name="AVECCONST">      0.00000000      0.00000000      0.00000000</v>
  </separator>
  <separator name="response functions" >
   <i type="logical" name="LFINITE_TEMPERATURE"> F  </i>
   <i type="logical" name="LADDER"> F  </i>
   <i type="logical" name="LRPAFORCE"> F  </i>
   <i type="logical" name="LFXC"> F  </i>
   <i type="logical" name="LHARTREE"> T  </i>
   <i type="int" name="IBSE">     0</i>
   <v type="int" name="KPOINT">    -1     0     0     0</v>
   <i type="logical" name="LTCTC"> F  </i>
   <i type="logical" name="LTCTE"> F  </i>
   <i type="logical" name="LTETE"> F  </i>
   <i type="logical" name="LTRIPLET"> F  </i>
   <i type="logical" name="LFXCEPS"> F  </i>
   <i type="logical" name="LFXHEG"> F  </i>
   <i type="int" name="NATURALO">     2</i>
   <i type="logical" name="LHOLEGF"> F  </i>
   <i type="logical" name="L2ORDER"> F  </i>
   <i type="logical" name="LDMP1"> F  </i>
   <i type="logical" name="LMP2LT"> F  </i>
   <i type="logical" name="LSMP2LT"> F  </i>
   <i type="logical" name="LGWLF"> F  </i>
   <i name="ENCUTGW">     -2.00000000</i>
   <i name="ENCUTGWSOFT">     -2.00000000</i>
   <i name="ENCUTLF">     -1.00000000</i>
   <i type="logical" name="LESF_SPLINES"> F  </i>
   <i type="int" name="LMAXMP2">    -1</i>
   <i name="SCISSOR">      0.00000000</i>
   <i type="int" name="NOMEGA">     0</i>
   <i type="int" name="NOMEGAR">     0</i>
   <i type="int" name="NBANDSGW">    -1</i>
   <i type="int" name="NBANDSO">    -1</i>
   <i type="int" name="NBANDSV">    -1</i>
   <i type="int" name="NELM">   100</i>
   <i type="int" name="NELMHF">     1</i>
   <i type="int" name="DIM">     3</i>
   <i type="int" name="IESPILON">     4</i>
   <i type="int" name="ANTIRES">     0</i>
   <i name="OMEGAMAX">    -30.00000000</i>
   <i name="OMEGAMIN">    -30.00000000</i>
   <i name="OMEGATL">   -200.00000000</i>
   <i type="int" name="OMEGAGRID">     0</i>
   <i name="CSHIFT">     -0.10000000</i>
   <i type="logical" name="LSELFENERGY"> F  </i>
   <i type="logical" name="LSPECTRAL"> F  </i>
   <i type="logical" name="LSPECTRALGW"> F  </i>
   <i type="logical" name="LSINGLES"> F  </i>
   <i type="logical" name="LFERMIGW"> F  </i>
   <i type="logical" name="ODDONLYGW"> F  </i>
   <i type="logical" name="EVENONLYGW"> F  </i>
   <i type="int" name="NKREDLFX">     1</i>
   <i type="int" name="NKREDLFY">     1</i>
   <i type="int" name="NKREDLFZ">     1</i>
   <i type="int" name="MAXMEM">  2800</i>
   <i type="int" name="TELESCOPE">     0</i>
   <i type="int" name="NTAUPAR">    -1</i>
   <i type="int" name="NOMEGAPAR">    -1</i>
   <i name="DAMP_NEWTON">      0.80000001</i>
   <i name="LAMBDA">      1.00000000</i>
  </separator>
  <separator name="External order field" >
   <i name="OFIELD_KAPPA">      0.00000000</i>
   <v name="OFIELD_K">      0.00000000      0.00000000      0.00000000</v>
   <i name="OFIELD_Q6_NEAR">      0.00000000</i>
   <i name="OFIELD_Q6_FAR">      0.00000000</i>
   <i name="OFIELD_A">      0.00000000</i>
  </separator>
 </parameters>
 <atominfo>
  <atoms>       9 </atoms>
  <types>       2 </types>
  <array name="atoms" >
   <dimension dim="1">ion</dimension>
   <field type="string">element</field>
   <field type="int">atomtype</field>
   <set>
    <rc><c>Mo</c><c>   1</c></rc>
    <rc><c>Mo</c><c>   1</c></rc>
    <rc><c>Mo</c><c>   1</c></rc>
    <rc><c>S </c><c>   2</c></rc>
    <rc><c>S </c><c>   2</c></rc>
    <rc><c>S </c><c>   2</c></rc>
    <rc><c>S </c><c>   2</c></rc>
    <rc><c>S </c><c>   2</c></rc>
    <rc><c>S </c><c>   2</c></rc>
   </set>
  </array>
  <array name="atomtypes" >
   <dimension dim="1">type</dimension>
   <field type="int">atomspertype</field>
   <field type="string">element</field>
   <field>mass</field>
   <field>valence</field>
   <field type="string">pseudopotential</field>
   <set>
    <rc><c>   3</c><c>Mo</c><c>     95.94000000</c><c>      6.00000000</c><c>  PAW_PBE Mo 08Apr2002                  </c></rc>
    <rc><c>   6</c><c>S </c><c>     32.06600000</c><c>      6.00000000</c><c>  PAW_PBE S 06Sep2000                   </c></rc>
   </set>
  </array>
 </atominfo>
 <structure name="initialpos" >
  <crystal>
   <varray name="basis" >
    <v>       1.59215192      -2.75768801       0.00000000 </v>
    <v>       1.59215192       2.75768801       0.00000000 </v>
    <v>       0.00000000       0.00000000      19.44629514 </v>
   </varray>
   <i name="volume">    170.76407233 </i>
   <varray name="rec_basis" >
    <v>       0.31404038      -0.18131130       0.00000000 </v>
    <v>       0.31404038       0.18131130      -0.00000000 </v>
    <v>      -0.00000000       0.00000000       0.05142368 </v>
   </varray>
  </crystal>
  <varray name="positions" >
   <v>       0.66666667       0.33333333       0.33310854 </v>
   <v>       0.33333333       0.66666667       0.66644188 </v>
   <v>       0.00000000       0.00000000       0.99977521 </v>
   <v>       0.33333333       0.66666667       0.08002471 </v>
   <v>       0.00000000       0.00000000       0.25286775 </v>
   <v>       0.00000000       0.00000000       0.41335804 </v>
   <v>       0.66666667       0.33333333       0.58620108 </v>
   <v>       0.66666667       0.33333333       0.74669137 </v>
   <v>       0.33333333       0.66666667       0.91953442 </v>
  </varray>
 </structure>
 <calculation>
  <scstep>
   <time name="dav">    5.13    5.18</time>
   <time name="total">    5.50    5.55</time>
   <energy>
    <i name="alphaZ">    156.26454146 </i>
    <i name="ewald">  -2190.67382923 </i>
    <i name="hartreedc">   -430.91488022 </i>
    <i name="XCdc">   -107.66158923 </i>
    <i name="pawpsdc">   2100.93528082 </i>
    <i name="pawaedc">  -1868.23984205 </i>
    <i name="eentropy">     -0.00028161 </i>
    <i name="bandstr">    314.05221524 </i>
    <i name="atom">   2313.47388723 </i>
    <i name="e_fr_energy">    287.23550243 </i>
    <i name="e_wo_entrp">    287.23578404 </i>
    <i name="e_0_energy">    287.23564323 </i>
   </energy>
  </scstep>
  <scstep>
   <time name="dav">    6.02    6.08</time>
   <time name="total">    6.02    6.08</time>
   <energy>
    <i name="e_fr_energy">    -42.21594418 </i>
    <i name="e_wo_entrp">    -42.21594418 </i>
    <i name="e_0_energy">    -42.21594418 </i>
   </energy>
  </scstep>
  <scstep>
   <time name="dav">    5.82    5.87</time>
   <time name="total">    5.82    5.87</time>
   <energy>
    <i name="e_fr_energy">    -67.44162284 </i>
    <i name="e_wo_entrp">    -67.44162284 </i>
    <i name="e_0_energy">    -67.44162284 </i>
   </energy>
  </scstep>
  <scstep>
   <time name="dav">    6.19    6.25</time>
   <time name="total">    6.19    6.25</time>
   <energy>
    <i name="e_fr_energy">    -68.11936737 </i>
    <i name="e_wo_entrp">    -68.11936737 </i>
    <i name="e_0_energy">    -68.11936737 </i>
   </energy>
  </scstep>
  <scstep>
   <time name="dav">    6.04    6.10</time>
   <time name="total">    6.55    6.61</time>
   <energy>
    <i name="e_fr_energy">    -68.13559907 </i>
    <i name="e_wo_entrp">    -68.13559907 </i>
    <i name="e_0_energy">    -68.13559907 </i>
   </energy>
  </scstep>
  <scstep>
   <time name="diag">    1.31    1.32</time>
   <time name="diis">    4.24    4.26</time>
   <time name="orth">    0.07    0.08</time>
   <time name="total">    6.48    6.52</time>
   <energy>
    <i name="e_fr_energy">    -58.34229400 </i>
    <i name="e_wo_entrp">    -58.34229400 </i>
    <i name="e_0_energy">    -58.34229400 </i>
   </energy>
  </scstep>
  <scstep>
   <time name="diag">    1.31    1.32</time>
   <time name="diis">    4.28    4.30</time>
   <time name="orth">    0.07    0.08</time>
   <time name="total">    6.53    6.57</time>
   <energy>
    <i name="e_fr_energy">    -57.24701616 </i>
    <i name="e_wo_entrp">    -57.24701616 </i>
    <i name="e_0_energy">    -57.24701616 </i>
   </energy>
  </scstep>
  <scstep>
   <time name="diag">    1.31    1.32</time>
   <time name="diis">    4.43    4.45</time>
   <time name="orth">    0.07    0.08</time>
   <time name="total">    6.67    6.71</time>
   <energy>
    <i name="e_fr_energy">    -57.42878788 </i>
    <i name="e_wo_entrp">    -57.42878788 </i>
    <i name="e_0_energy">    -57.42878788 </i>
   </energy>
  </scstep>
  <scstep>
   <time name="diag">    1.31    1.32</time>
   <time name="diis">    4.52    4.54</time>
   <time name="orth">    0.07    0.07</time>
   <time name="total">    6.76    6.81</time>
   <energy>
    <i name="e_fr_energy">    -58.97967521 </i>
    <i name="e_wo_entrp">    -58.97967521 </i>
    <i name="e_0_energy">    -58.97967521 </i>
   </energy>
  </scstep>
  <scstep>
   <time name="diag">    1.31    1.32</time>
   <time name="diis">    4.96    4.98</time>
   <time name="orth">    0.07    0.07</time>
   <time name="total">    7.20    7.25</time>
   <energy>
    <i name="e_fr_energy">    -61.87099654 </i>
    <i name="e_wo_entrp">    -61.87099654 </i>
    <i name="e_0_energy">    -61.87099654 </i>
   </energy>
  </scstep>
  <scstep>
   <time name="diag">    1.36    1.37</time>
   <time name="diis">    5.23    5.25</time>
   <time name="orth">    0.07    0.07</time>
   <time name="total">    7.51    7.55</time>
   <energy>
    <i name="e_fr_energy">    -63.46609634 </i>
    <i name="e_wo_entrp">    -63.46609634 </i>
    <i name="e_0_energy">    -63.46609634 </i>
   </energy>
  </scstep>
  <scstep>
   <time name="diag">    1.30    1.32</time>
   <time name="diis">    5.60    5.62</time>
   <time name="orth">    0.07    0.07</time>
   <time name="total">    7.83    7.87</time>
   <energy>
    <i name="e_fr_energy">    -64.82613105 </i>
    <i name="e_wo_entrp">    -64.82613105 </i>
    <i name="e_0_energy">    -64.82613105 </i>
   </energy>
  </scstep>
  <scstep>
   <time name="diag">    1.30    1.32</time>
   <time name="diis">    5.48    5.50</time>
   <time name="orth">    0.07    0.07</time>
   <time name="total">    7.70    7.75</time>
   <energy>
    <i name="e_fr_energy">    -65.34593099 </i>
    <i name="e_wo_entrp">    -65.34593099 </i>
    <i name="e_0_energy">    -65.34593099 </i>
   </energy>
  </scstep>
  <scstep>
   <time name="diag">    1.36    1.37</time>
   <time name="diis">    4.44    4.46</time>
   <time name="orth">    0.07    0.07</time>
   <time name="total">    6.71    6.75</time>
   <energy>
    <i name="e_fr_energy">    -65.34886850 </i>
    <i name="e_wo_entrp">    -65.34886850 </i>
    <i name="e_0_energy">    -65.34886850 </i>
   </energy>
  </scstep>
  <scstep>
   <time name="diag">    1.31    1.32</time>
   <time name="diis">    4.90    4.92</time>
   <time name="orth">    0.07    0.08</time>
   <time name="total">    7.13    7.17</time>
   <energy>
    <i name="e_fr_energy">    -65.35210373 </i>
    <i name="e_wo_entrp">    -65.35210373 </i>
    <i name="e_0_energy">    -65.35210373 </i>
   </energy>
  </scstep>
  <scstep>
   <time name="diag">    1.31    1.32</time>
   <time name="diis">    4.94    4.96</time>
   <time name="orth">    0.07    0.07</time>
   <time name="total">    7.17    7.22</time>
   <energy>
    <i name="e_fr_energy">    -65.35600726 </i>
    <i name="e_wo_entrp">    -65.35600726 </i>
    <i name="e_0_energy">    -65.35600726 </i>
   </energy>
  </scstep>
  <scstep>
   <time name="diag">    1.33    1.34</time>
   <time name="diis">    4.94    4.96</time>
   <time name="orth">    0.07    0.07</time>
   <time name="total">    7.18    7.22</time>
   <energy>
    <i name="e_fr_energy">    -65.35633168 </i>
    <i name="e_wo_entrp">    -65.35633168 </i>
    <i name="e_0_energy">    -65.35633168 </i>
   </energy>
  </scstep>
  <scstep>
   <time name="diag">    1.34    1.35</time>
   <time name="diis">    5.48    5.51</time>
   <time name="orth">    0.07    0.07</time>
   <time name="total">    7.73    7.78</time>
   <energy>
    <i name="e_fr_energy">    -65.35650960 </i>
    <i name="e_wo_entrp">    -65.35650960 </i>
    <i name="e_0_energy">    -65.35650960 </i>
   </energy>
  </scstep>
  <scstep>
   <time name="diag">    1.34    1.35</time>
   <time name="diis">    4.98    5.00</time>
   <time name="orth">    0.07    0.07</time>
   <time name="total">    7.22    7.27</time>
   <energy>
    <i name="e_fr_energy">    -65.35661882 </i>
    <i name="e_wo_entrp">    -65.35661882 </i>
    <i name="e_0_energy">    -65.35661882 </i>
   </energy>
  </scstep>
  <scstep>
   <time name="diag">    1.31    1.33</time>
   <time name="diis">    5.30    5.32</time>
   <time name="orth">    0.07    0.07</time>
   <time name="total">    7.52    7.56</time>
   <energy>
    <i name="e_fr_energy">    -65.35666743 </i>
    <i name="e_wo_entrp">    -65.35666743 </i>
    <i name="e_0_energy">    -65.35666743 </i>
   </energy>
  </scstep>
  <scstep>
   <time name="diag">    1.32    1.34</time>
   <time name="diis">    5.51    5.53</time>
   <time name="orth">    0.07    0.07</time>
   <time name="total">    7.73    7.78</time>
   <energy>
    <i name="e_fr_energy">    -65.35666990 </i>
    <i name="e_wo_entrp">    -65.35666990 </i>
    <i name="e_0_energy">    -65.35666990 </i>
   </energy>
  </scstep>
  <scstep>
   <time name="diag">    1.32    1.33</time>
   <time name="diis">    5.62    5.64</time>
   <time name="orth">    0.07    0.07</time>
   <time name="total">    7.84    7.89</time>
   <energy>
    <i name="e_fr_energy">    -65.35667133 </i>
    <i name="e_wo_entrp">    -65.35667133 </i>
    <i name="e_0_energy">    -65.35667133 </i>
   </energy>
  </scstep>
  <scstep>
   <time name="diag">    1.35    1.37</time>
   <time name="diis">    5.07    5.09</time>
   <time name="orth">    0.07    0.08</time>
   <time name="total">    7.33    7.38</time>
   <energy>
    <i name="e_fr_energy">    -65.35667164 </i>
    <i name="e_wo_entrp">    -65.35667164 </i>
    <i name="e_0_energy">    -65.35667164 </i>
   </energy>
  </scstep>
  <scstep>
   <time name="diag">    1.31    1.33</time>
   <time name="diis">    4.79    4.81</time>
   <time name="orth">    0.07    0.07</time>
   <time name="total">    7.01    7.05</time>
   <energy>
    <i name="e_fr_energy">    -65.35667200 </i>
    <i name="e_wo_entrp">    -65.35667200 </i>
    <i name="e_0_energy">    -65.35667200 </i>
   </energy>
  </scstep>
  <scstep>
   <time name="diag">    1.32    1.33</time>
   <time name="diis">    4.16    4.17</time>
   <time name="orth">    0.07    0.07</time>
   <time name="total">    5.87    5.91</time>
   <energy>
    <i name="alphaZ">    156.26454146 </i>
    <i name="ewald">  -2190.67382923 </i>
    <i name="hartreedc">   -437.64962373 </i>
    <i name="XCdc">   -105.25842620 </i>
    <i name="pawpsdc">   4845.48688294 </i>
    <i name="pawaedc">  -4618.12835861 </i>
    <i name="eentropy">     -0.00000000 </i>
    <i name="bandstr">    -28.87174583 </i>
    <i name="atom">   2313.47388723 </i>
    <i name="e_fr_energy">    -65.35667196 </i>
    <i name="e_wo_entrp">    -65.35667196 </i>
    <i name="e_0_energy">    -65.35667196 </i>
   </energy>
  </scstep>
  <structure>
   <crystal>
    <varray name="basis" >
     <v>       1.59215192      -2.75768801       0.00000000 </v>
     <v>       1.59215192       2.75768801       0.00000000 </v>
     <v>       0.00000000       0.00000000      19.44629514 </v>
    </varray>
    <i name="volume">    170.76407233 </i>
    <varray name="rec_basis" >
     <v>       0.31404038      -0.18131130       0.00000000 </v>
     <v>       0.31404038       0.18131130      -0.00000000 </v>
     <v>      -0.00000000       0.00000000       0.05142368 </v>
    </varray>
   </crystal>
   <varray name="positions" >
    <v>       0.66666667       0.33333333       0.33310854 </v>
    <v>       0.33333333       0.66666667       0.66644188 </v>
    <v>       0.00000000       0.00000000       0.99977521 </v>
    <v>       0.33333333       0.66666667       0.08002471 </v>
    <v>       0.00000000       0.00000000       0.25286775 </v>
    <v>       0.00000000       0.00000000       0.41335804 </v>
    <v>       0.66666667       0.33333333       0.58620108 </v>
    <v>       0.66666667       0.33333333       0.74669137 </v>
    <v>       0.33333333       0.66666667       0.91953442 </v>
   </varray>
  </structure>
  <varray name="forces" >
   <v>       0.00000000       0.00000000      -0.00279452 </v>
   <v>       0.00000000       0.00000000      -0.00279452 </v>
   <v>      -0.00000000       0.00000000      -0.00279452 </v>
   <v>       0.00000000      -0.00000000       0.00218906 </v>
   <v>      -0.00000000       0.00000000       0.00060545 </v>
   <v>       0.00000000      -0.00000000       0.00218906 </v>
   <v>      -0.00000000      -0.00000000       0.00060545 </v>
   <v>      -0.00000000      -0.00000000       0.00218906 </v>
   <v>      -0.00000000      -0.00000000       0.00060545 </v>
  </varray>
  <varray name="stress" >
   <v>     -32.32182477       0.00000000       0.00000000 </v>
   <v>       0.00000000     -32.32182477       0.00000000 </v>
   <v>       0.00000000       0.00000000     -23.01348588 </v>
  </varray>
  <energy>
   <i name="e_fr_energy">    -68.94376838 </i>
   <i name="e_wo_entrp">    -68.94376838 </i>
   <i name="e_0_energy">    -68.94376838 </i>
  </energy>
  <time name="totalsc">  179.15  181.24</time>
  <eigenvalues>
   <array>
    <dimension dim="1">band</dimension>
    <dimension dim="2">kpoint</dimension>
    <dimension dim="3">spin</dimension>
    <field>eigene</field>
    <field>occ</field>
    <set>
     <set comment="spin 1">
      <set comment="kpoint 1">
       <r>   -9.4973    1.0000 </r>
       <r>   -9.3998    1.0000 </r>
       <r>   -9.3998    1.0000 </r>
       <r>   -8.3427    1.0000 </r>
       <r>   -8.3427    1.0000 </r>
       <r>   -8.1823    1.0000 </r>
       <r>   -1.2558    1.0000 </r>
       <r>   -0.8029    1.0000 </r>
       <r>   -0.8029    1.0000 </r>
       <r>    1.5039    1.0000 </r>
       <r>    1.5039    1.0000 </r>
       <r>    1.5124    1.0000 </r>
       <r>    1.8681    1.0000 </r>
       <r>    1.8681    1.0000 </r>
       <r>    2.0427    1.0000 </r>
       <r>    2.0427    1.0000 </r>
       <r>    2.0491    1.0000 </r>
       <r>    2.3625    1.0000 </r>
       <r>    2.6762    1.0000 </r>
       <r>    2.6849    1.0000 </r>
       <r>    2.6849    1.0000 </r>
       <r>    3.2537    1.0000 </r>
       <r>    3.2537    1.0000 </r>
       <r>    3.9408    1.0000 </r>
       <r>    4.0893    1.0000 </r>
       <r>    4.6674    1.0000 </r>
       <r>    4.6674    1.0000 </r>
       <r>    7.0200    0.0000 </r>
       <r>    7.0393    0.0000 </r>
       <r>    7.0394    0.0000 </r>
       <r>    7.0965    0.0000 </r>
       <r>    7.2036    0.0000 </r>
       <r>    7.2055    0.0000 </r>
       <r>    7.2985    0.0000 </r>
       <r>    7.3010    0.0000 </r>
       <r>    7.3417    0.0000 </r>
       <r>    7.5553    0.0000 </r>
       <r>    7.5751    0.0000 </r>
      </set>
      <set comment="kpoint 2">
       <r>   -8.9975    1.0000 </r>
       <r>   -8.9080    1.0000 </r>
       <r>   -8.9068    1.0000 </r>
       <r>   -8.0999    1.0000 </r>
       <r>   -8.0979    1.0000 </r>
       <r>   -7.9667    1.0000 </r>
       <r>   -0.8025    1.0000 </r>
       <r>   -0.4224    1.0000 </r>
       <r>   -0.4216    1.0000 </r>
       <r>    0.7541    1.0000 </r>
       <r>    0.7700    1.0000 </r>
       <r>    0.7802    1.0000 </r>
       <r>    1.1210    1.0000 </r>
       <r>    1.1222    1.0000 </r>
       <r>    1.3701    1.0000 </r>
       <r>    1.9509    1.0000 </r>
       <r>    1.9601    1.0000 </r>
       <r>    1.9941    1.0000 </r>
       <r>    2.5142    1.0000 </r>
       <r>    2.5284    1.0000 </r>
       <r>    2.5345    1.0000 </r>
       <r>    3.2294    1.0000 </r>
       <r>    3.2820    1.0000 </r>
       <r>    3.7212    1.0000 </r>
       <r>    3.8281    1.0000 </r>
       <r>    3.9607    1.0000 </r>
       <r>    3.9828    1.0000 </r>
       <r>    6.3697    0.0000 </r>
       <r>    6.7188    0.0000 </r>
       <r>    6.7252    0.0000 </r>
       <r>    6.9117    0.0000 </r>
       <r>    6.9287    0.0000 </r>
       <r>    6.9376    0.0000 </r>
       <r>    7.2414    0.0000 </r>
       <r>    7.2469    0.0000 </r>
       <r>    7.3501    0.0000 </r>
       <r>    8.2098    0.0000 </r>
       <r>    8.2417    0.0000 </r>
      </set>
      <set comment="kpoint 3">
       <r>   -8.3011    1.0000 </r>
       <r>   -8.2362    1.0000 </r>
       <r>   -8.2282    1.0000 </r>
       <r>   -7.7744    1.0000 </r>
       <r>   -7.7634    1.0000 </r>
       <r>   -7.6826    1.0000 </r>
       <r>   -0.8703    1.0000 </r>
       <r>   -0.7387    1.0000 </r>
       <r>   -0.7279    1.0000 </r>
       <r>    0.1438    1.0000 </r>
       <r>    0.1669    1.0000 </r>
       <r>    0.2994    1.0000 </r>
       <r>    0.5052    1.0000 </r>
       <r>    0.6135    1.0000 </r>
       <r>    0.7179    1.0000 </r>
       <r>    1.4669    1.0000 </r>
       <r>    1.4799    1.0000 </r>
       <r>    1.5266    1.0000 </r>
       <r>    2.7476    1.0000 </r>
       <r>    2.8817    1.0000 </r>
       <r>    2.9333    1.0000 </r>
       <r>    2.9388    1.0000 </r>
       <r>    2.9841    1.0000 </r>
       <r>    3.1193    1.0000 </r>
       <r>    3.5963    1.0000 </r>
       <r>    3.6344    1.0000 </r>
       <r>    3.6531    1.0000 </r>
       <r>    6.4497    0.0000 </r>
       <r>    6.6227    0.0000 </r>
       <r>    6.6719    0.0000 </r>
       <r>    6.8268    0.0000 </r>
       <r>    6.9781    0.0000 </r>
       <r>    6.9881    0.0000 </r>
       <r>    7.8013    0.0000 </r>
       <r>    7.8063    0.0000 </r>
       <r>    8.0559    0.0000 </r>
       <r>    8.6423    0.0000 </r>
       <r>    8.6660    0.0000 </r>
      </set>
      <set comment="kpoint 4">
       <r>   -7.8133    1.0000 </r>
       <r>   -7.7984    1.0000 </r>
       <r>   -7.7687    1.0000 </r>
       <r>   -7.5671    1.0000 </r>
       <r>   -7.5320    1.0000 </r>
       <r>   -7.5155    1.0000 </r>
       <r>   -1.2287    1.0000 </r>
       <r>   -1.2096    1.0000 </r>
       <r>   -1.1605    1.0000 </r>
       <r>   -0.3828    1.0000 </r>
       <r>   -0.3199    1.0000 </r>
       <r>   -0.3001    1.0000 </r>
       <r>    0.3807    1.0000 </r>
       <r>    0.3921    1.0000 </r>
       <r>    0.5428    1.0000 </r>
       <r>    1.3107    1.0000 </r>
       <r>    1.3187    1.0000 </r>
       <r>    1.3250    1.0000 </r>
       <r>    2.4636    1.0000 </r>
       <r>    2.6928    1.0000 </r>
       <r>    2.7390    1.0000 </r>
       <r>    3.1381    1.0000 </r>
       <r>    3.1921    1.0000 </r>
       <r>    3.2139    1.0000 </r>
       <r>    3.9216    1.0000 </r>
       <r>    3.9454    1.0000 </r>
       <r>    3.9965    1.0000 </r>
       <r>    6.6767    0.0000 </r>
       <r>    6.6968    0.0000 </r>
       <r>    6.7016    0.0000 </r>
       <r>    7.1351    0.0000 </r>
       <r>    7.2065    0.0000 </r>
       <r>    7.2310    0.0000 </r>
       <r>    8.2789    0.0000 </r>
       <r>    8.3596    0.0000 </r>
       <r>    8.4944    0.0000 </r>
       <r>    8.6221    0.0000 </r>
       <r>    8.6975    0.0000 </r>
      </set>
      <set comment="kpoint 5">
       <r>   -7.9982    1.0000 </r>
       <r>   -7.9554    1.0000 </r>
       <r>   -7.9388    1.0000 </r>
       <r>   -7.6415    1.0000 </r>
       <r>   -7.6207    1.0000 </r>
       <r>   -7.5712    1.0000 </r>
       <r>   -1.0907    1.0000 </r>
       <r>   -1.0273    1.0000 </r>
       <r>   -0.9979    1.0000 </r>
       <r>   -0.1933    1.0000 </r>
       <r>   -0.1490    1.0000 </r>
       <r>   -0.0836    1.0000 </r>
       <r>    0.4448    1.0000 </r>
       <r>    0.4926    1.0000 </r>
       <r>    0.6302    1.0000 </r>
       <r>    1.3550    1.0000 </r>
       <r>    1.3682    1.0000 </r>
       <r>    1.3957    1.0000 </r>
       <r>    2.5633    1.0000 </r>
       <r>    2.7458    1.0000 </r>
       <r>    2.8812    1.0000 </r>
       <r>    3.0557    1.0000 </r>
       <r>    3.0773    1.0000 </r>
       <r>    3.1270    1.0000 </r>
       <r>    3.7572    1.0000 </r>
       <r>    3.8012    1.0000 </r>
       <r>    3.8263    1.0000 </r>
       <r>    6.5991    0.0000 </r>
       <r>    6.6736    0.0000 </r>
       <r>    6.7004    0.0000 </r>
       <r>    6.9471    0.0000 </r>
       <r>    7.1049    0.0000 </r>
       <r>    7.1077    0.0000 </r>
       <r>    8.0935    0.0000 </r>
       <r>    8.1083    0.0000 </r>
       <r>    8.3340    0.0000 </r>
       <r>    8.6859    0.0000 </r>
       <r>    8.7354    0.0000 </r>
      </set>
      <set comment="kpoint 6">
       <r>   -8.6539    1.0000 </r>
       <r>   -8.5739    1.0000 </r>
       <r>   -8.5704    1.0000 </r>
       <r>   -7.9368    1.0000 </r>
       <r>   -7.9316    1.0000 </r>
       <r>   -7.8233    1.0000 </r>
       <r>   -0.7202    1.0000 </r>
       <r>   -0.4684    1.0000 </r>
       <r>   -0.4673    1.0000 </r>
       <r>    0.4986    1.0000 </r>
       <r>    0.5180    1.0000 </r>
       <r>    0.5465    1.0000 </r>
       <r>    0.7623    1.0000 </r>
       <r>    0.7963    1.0000 </r>
       <r>    0.8167    1.0000 </r>
       <r>    1.6600    1.0000 </r>
       <r>    1.6709    1.0000 </r>
       <r>    1.7241    1.0000 </r>
       <r>    2.7550    1.0000 </r>
       <r>    2.7834    1.0000 </r>
       <r>    2.7865    1.0000 </r>
       <r>    3.0088    1.0000 </r>
       <r>    3.1006    1.0000 </r>
       <r>    3.4119    1.0000 </r>
       <r>    3.6158    1.0000 </r>
       <r>    3.6562    1.0000 </r>
       <r>    3.6825    1.0000 </r>
       <r>    6.3326    0.0000 </r>
       <r>    6.6220    0.0000 </r>
       <r>    6.6692    0.0000 </r>
       <r>    6.8253    0.0000 </r>
       <r>    6.9066    0.0000 </r>
       <r>    6.9156    0.0000 </r>
       <r>    7.4855    0.0000 </r>
       <r>    7.4898    0.0000 </r>
       <r>    7.7045    0.0000 </r>
       <r>    8.4745    0.0000 </r>
       <r>    8.4920    0.0000 </r>
      </set>
      <set comment="kpoint 7">
       <r>   -9.2884    1.0000 </r>
       <r>   -9.1936    1.0000 </r>
       <r>   -9.1933    1.0000 </r>
       <r>   -8.2406    1.0000 </r>
       <r>   -8.2400    1.0000 </r>
       <r>   -8.0914    1.0000 </r>
       <r>   -1.0355    1.0000 </r>
       <r>   -0.6003    1.0000 </r>
       <r>   -0.6000    1.0000 </r>
       <r>    1.1283    1.0000 </r>
       <r>    1.1373    1.0000 </r>
       <r>    1.1434    1.0000 </r>
       <r>    1.5128    1.0000 </r>
       <r>    1.5135    1.0000 </r>
       <r>    1.9035    1.0000 </r>
       <r>    2.2515    1.0000 </r>
       <r>    2.2569    1.0000 </r>
       <r>    2.2627    1.0000 </r>
       <r>    2.3241    1.0000 </r>
       <r>    2.3301    1.0000 </r>
       <r>    2.3324    1.0000 </r>
       <r>    3.3265    1.0000 </r>
       <r>    3.3475    1.0000 </r>
       <r>    3.9358    1.0000 </r>
       <r>    4.0131    1.0000 </r>
       <r>    4.3619    1.0000 </r>
       <r>    4.3705    1.0000 </r>
       <r>    6.6282    0.0000 </r>
       <r>    6.8486    0.0000 </r>
       <r>    6.8647    0.0000 </r>
       <r>    7.0288    0.0000 </r>
       <r>    7.0463    0.0000 </r>
       <r>    7.1013    0.0000 </r>
       <r>    7.1467    0.0000 </r>
       <r>    7.1706    0.0000 </r>
       <r>    7.1860    0.0000 </r>
       <r>    7.8716    0.0000 </r>
       <r>    7.9015    0.0000 </r>
      </set>
      <set comment="kpoint 8">
       <r>   -9.6061    1.0000 </r>
       <r>   -9.5075    1.0000 </r>
       <r>   -9.5075    1.0000 </r>
       <r>   -8.3962    1.0000 </r>
       <r>   -8.3962    1.0000 </r>
       <r>   -8.2300    1.0000 </r>
       <r>   -1.3810    1.0000 </r>
       <r>   -0.9227    1.0000 </r>
       <r>   -0.9226    1.0000 </r>
       <r>    1.7339    1.0000 </r>
       <r>    1.7373    1.0000 </r>
       <r>    1.7421    1.0000 </r>
       <r>    1.9250    1.0000 </r>
       <r>    1.9282    1.0000 </r>
       <r>    1.9324    1.0000 </r>
       <r>    2.1331    1.0000 </r>
       <r>    2.1333    1.0000 </r>
       <r>    2.6983    1.0000 </r>
       <r>    2.8830    1.0000 </r>
       <r>    2.8898    1.0000 </r>
       <r>    2.8976    1.0000 </r>
       <r>    3.1080    1.0000 </r>
       <r>    3.1173    1.0000 </r>
       <r>    3.8134    1.0000 </r>
       <r>    4.1042    1.0000 </r>
       <r>    4.8117    1.0000 </r>
       <r>    4.8126    1.0000 </r>
       <r>    7.1763    0.0000 </r>
       <r>    7.1788    0.0000 </r>
       <r>    7.2007    0.0000 </r>
       <r>    7.3331    0.0000 </r>
       <r>    7.3400    0.0000 </r>
       <r>    7.3510    0.0000 </r>
       <r>    7.3619    0.0000 </r>
       <r>    7.3750    0.0000 </r>
       <r>    7.4071    0.0000 </r>
       <r>    7.4285    0.0000 </r>
       <r>    7.4563    0.0000 </r>
      </set>
      <set comment="kpoint 9">
       <r>   -8.4231    1.0000 </r>
       <r>   -8.3483    1.0000 </r>
       <r>   -8.3483    1.0000 </r>
       <r>   -7.8197    1.0000 </r>
       <r>   -7.8197    1.0000 </r>
       <r>   -7.7230    1.0000 </r>
       <r>   -0.6627    1.0000 </r>
       <r>   -0.4619    1.0000 </r>
       <r>   -0.4619    1.0000 </r>
       <r>    0.4443    1.0000 </r>
       <r>    0.4443    1.0000 </r>
       <r>    0.5136    1.0000 </r>
       <r>    0.6273    1.0000 </r>
       <r>    0.7557    1.0000 </r>
       <r>    0.7557    1.0000 </r>
       <r>    1.1680    1.0000 </r>
       <r>    1.1680    1.0000 </r>
       <r>    1.3864    1.0000 </r>
       <r>    2.3658    1.0000 </r>
       <r>    2.3658    1.0000 </r>
       <r>    2.3974    1.0000 </r>
       <r>    3.2679    1.0000 </r>
       <r>    3.2679    1.0000 </r>
       <r>    3.4481    1.0000 </r>
       <r>    3.6738    1.0000 </r>
       <r>    3.6738    1.0000 </r>
       <r>    3.7008    1.0000 </r>
       <r>    6.1636    0.0000 </r>
       <r>    6.5608    0.0000 </r>
       <r>    6.5608    0.0000 </r>
       <r>    6.9483    0.0000 </r>
       <r>    6.9587    0.0000 </r>
       <r>    6.9587    0.0000 </r>
       <r>    7.3471    0.0000 </r>
       <r>    7.3471    0.0000 </r>
       <r>    7.4834    0.0000 </r>
       <r>    8.7954    0.0000 </r>
       <r>    8.8070    0.0000 </r>
      </set>
      <set comment="kpoint 10">
       <r>   -7.8449    1.0000 </r>
       <r>   -7.8062    1.0000 </r>
       <r>   -7.7962    1.0000 </r>
       <r>   -7.5471    1.0000 </r>
       <r>   -7.5350    1.0000 </r>
       <r>   -7.4907    1.0000 </r>
       <r>   -0.8108    1.0000 </r>
       <r>   -0.7255    1.0000 </r>
       <r>   -0.7080    1.0000 </r>
       <r>   -0.4203    1.0000 </r>
       <r>   -0.3981    1.0000 </r>
       <r>   -0.3973    1.0000 </r>
       <r>    0.6388    1.0000 </r>
       <r>    0.6522    1.0000 </r>
       <r>    0.7864    1.0000 </r>
       <r>    1.2064    1.0000 </r>
       <r>    1.2249    1.0000 </r>
       <r>    1.3951    1.0000 </r>
       <r>    1.8593    1.0000 </r>
       <r>    1.9350    1.0000 </r>
       <r>    1.9818    1.0000 </r>
       <r>    2.7391    1.0000 </r>
       <r>    2.8274    1.0000 </r>
       <r>    2.8317    1.0000 </r>
       <r>    3.9733    1.0000 </r>
       <r>    3.9903    1.0000 </r>
       <r>    3.9965    1.0000 </r>
       <r>    6.4900    0.0000 </r>
       <r>    6.7193    0.0000 </r>
       <r>    6.7209    0.0000 </r>
       <r>    7.1737    0.0000 </r>
       <r>    7.2555    0.0000 </r>
       <r>    7.2713    0.0000 </r>
       <r>    7.6691    0.0000 </r>
       <r>    7.7569    0.0000 </r>
       <r>    7.7785    0.0000 </r>
       <r>    8.9358    0.0000 </r>
       <r>    9.0529    0.0000 </r>
      </set>
      <set comment="kpoint 11">
       <r>   -7.6859    1.0000 </r>
       <r>   -7.6724    1.0000 </r>
       <r>   -7.6513    1.0000 </r>
       <r>   -7.4779    1.0000 </r>
       <r>   -7.4536    1.0000 </r>
       <r>   -7.4387    1.0000 </r>
       <r>   -0.8248    1.0000 </r>
       <r>   -0.7949    1.0000 </r>
       <r>   -0.7531    1.0000 </r>
       <r>   -0.6323    1.0000 </r>
       <r>   -0.6092    1.0000 </r>
       <r>   -0.6067    1.0000 </r>
       <r>    0.4987    1.0000 </r>
       <r>    0.5144    1.0000 </r>
       <r>    0.6619    1.0000 </r>
       <r>    1.2924    1.0000 </r>
       <r>    1.3440    1.0000 </r>
       <r>    1.4158    1.0000 </r>
       <r>    1.8099    1.0000 </r>
       <r>    1.9267    1.0000 </r>
       <r>    1.9526    1.0000 </r>
       <r>    2.5329    1.0000 </r>
       <r>    2.6340    1.0000 </r>
       <r>    2.6438    1.0000 </r>
       <r>    4.1625    1.0000 </r>
       <r>    4.1639    1.0000 </r>
       <r>    4.2029    1.0000 </r>
       <r>    6.5067    0.0000 </r>
       <r>    6.5578    0.0000 </r>
       <r>    6.5681    0.0000 </r>
       <r>    7.4157    0.0000 </r>
       <r>    7.4808    0.0000 </r>
       <r>    7.5586    0.0000 </r>
       <r>    7.7996    0.0000 </r>
       <r>    7.8264    0.0000 </r>
       <r>    7.9082    0.0000 </r>
       <r>    8.8755    0.0000 </r>
       <r>    9.0474    0.0000 </r>
      </set>
      <set comment="kpoint 12">
       <r>   -8.1095    1.0000 </r>
       <r>   -8.0498    1.0000 </r>
       <r>   -8.0466    1.0000 </r>
       <r>   -7.6700    1.0000 </r>
       <r>   -7.6658    1.0000 </r>
       <r>   -7.5938    1.0000 </r>
       <r>   -0.7418    1.0000 </r>
       <r>   -0.6078    1.0000 </r>
       <r>   -0.6039    1.0000 </r>
       <r>   -0.0276    1.0000 </r>
       <r>   -0.0144    1.0000 </r>
       <r>   -0.0011    1.0000 </r>
       <r>    0.7052    1.0000 </r>
       <r>    0.7473    1.0000 </r>
       <r>    0.8168    1.0000 </r>
       <r>    1.1598    1.0000 </r>
       <r>    1.1616    1.0000 </r>
       <r>    1.3561    1.0000 </r>
       <r>    2.0479    1.0000 </r>
       <r>    2.0982    1.0000 </r>
       <r>    2.0998    1.0000 </r>
       <r>    3.0257    1.0000 </r>
       <r>    3.0709    1.0000 </r>
       <r>    3.1416    1.0000 </r>
       <r>    3.7720    1.0000 </r>
       <r>    3.7803    1.0000 </r>
       <r>    3.8094    1.0000 </r>
       <r>    6.3125    0.0000 </r>
       <r>    6.7391    0.0000 </r>
       <r>    6.7475    0.0000 </r>
       <r>    7.0158    0.0000 </r>
       <r>    7.0230    0.0000 </r>
       <r>    7.0378    0.0000 </r>
       <r>    7.4845    0.0000 </r>
       <r>    7.5231    0.0000 </r>
       <r>    7.6506    0.0000 </r>
       <r>    8.9292    0.0000 </r>
       <r>    8.9605    0.0000 </r>
      </set>
      <set comment="kpoint 13">
       <r>   -8.7328    1.0000 </r>
       <r>   -8.6492    1.0000 </r>
       <r>   -8.6481    1.0000 </r>
       <r>   -7.9710    1.0000 </r>
       <r>   -7.9693    1.0000 </r>
       <r>   -7.8538    1.0000 </r>
       <r>   -0.6751    1.0000 </r>
       <r>   -0.3753    1.0000 </r>
       <r>   -0.3740    1.0000 </r>
       <r>    0.6148    1.0000 </r>
       <r>    0.6176    1.0000 </r>
       <r>    0.6328    1.0000 </r>
       <r>    0.9342    1.0000 </r>
       <r>    0.9411    1.0000 </r>
       <r>    1.0251    1.0000 </r>
       <r>    1.4233    1.0000 </r>
       <r>    1.4241    1.0000 </r>
       <r>    1.5810    1.0000 </r>
       <r>    2.5577    1.0000 </r>
       <r>    2.5687    1.0000 </r>
       <r>    2.5851    1.0000 </r>
       <r>    3.3234    1.0000 </r>
       <r>    3.3568    1.0000 </r>
       <r>    3.6512    1.0000 </r>
       <r>    3.7055    1.0000 </r>
       <r>    3.7370    1.0000 </r>
       <r>    3.7463    1.0000 </r>
       <r>    6.2092    0.0000 </r>
       <r>    6.5462    0.0000 </r>
       <r>    6.5637    0.0000 </r>
       <r>    6.8870    0.0000 </r>
       <r>    6.8958    0.0000 </r>
       <r>    6.9077    0.0000 </r>
       <r>    7.2703    0.0000 </r>
       <r>    7.2750    0.0000 </r>
       <r>    7.3644    0.0000 </r>
       <r>    8.5447    0.0000 </r>
       <r>    8.5698    0.0000 </r>
      </set>
      <set comment="kpoint 14">
       <r>   -9.1886    1.0000 </r>
       <r>   -9.0956    1.0000 </r>
       <r>   -9.0947    1.0000 </r>
       <r>   -8.1926    1.0000 </r>
       <r>   -8.1911    1.0000 </r>
       <r>   -8.0486    1.0000 </r>
       <r>   -0.9481    1.0000 </r>
       <r>   -0.5286    1.0000 </r>
       <r>   -0.5283    1.0000 </r>
       <r>    0.9681    1.0000 </r>
       <r>    0.9886    1.0000 </r>
       <r>    0.9901    1.0000 </r>
       <r>    1.3241    1.0000 </r>
       <r>    1.3259    1.0000 </r>
       <r>    1.6498    1.0000 </r>
       <r>    2.3186    1.0000 </r>
       <r>    2.3208    1.0000 </r>
       <r>    2.3421    1.0000 </r>
       <r>    2.3636    1.0000 </r>
       <r>    2.3788    1.0000 </r>
       <r>    2.3811    1.0000 </r>
       <r>    3.1711    1.0000 </r>
       <r>    3.2274    1.0000 </r>
       <r>    3.7877    1.0000 </r>
       <r>    3.9503    1.0000 </r>
       <r>    4.2045    1.0000 </r>
       <r>    4.2271    1.0000 </r>
       <r>    6.5189    0.0000 </r>
       <r>    6.8280    0.0000 </r>
       <r>    6.8680    0.0000 </r>
       <r>    6.9811    0.0000 </r>
       <r>    7.0546    0.0000 </r>
       <r>    7.0669    0.0000 </r>
       <r>    7.2023    0.0000 </r>
       <r>    7.2131    0.0000 </r>
       <r>    7.3108    0.0000 </r>
       <r>    7.9258    0.0000 </r>
       <r>    7.9481    0.0000 </r>
      </set>
      <set comment="kpoint 15">
       <r>   -7.5568    1.0000 </r>
       <r>   -7.5459    1.0000 </r>
       <r>   -7.5459    1.0000 </r>
       <r>   -7.3872    1.0000 </r>
       <r>   -7.3872    1.0000 </r>
       <r>   -7.3752    1.0000 </r>
       <r>   -0.8777    1.0000 </r>
       <r>   -0.8777    1.0000 </r>
       <r>   -0.8767    1.0000 </r>
       <r>   -0.2634    1.0000 </r>
       <r>   -0.1951    1.0000 </r>
       <r>   -0.1951    1.0000 </r>
       <r>    0.5155    1.0000 </r>
       <r>    0.5155    1.0000 </r>
       <r>    0.5488    1.0000 </r>
       <r>    0.9325    1.0000 </r>
       <r>    0.9325    1.0000 </r>
       <r>    0.9395    1.0000 </r>
       <r>    1.5289    1.0000 </r>
       <r>    1.5289    1.0000 </r>
       <r>    1.6104    1.0000 </r>
       <r>    2.3687    1.0000 </r>
       <r>    2.3891    1.0000 </r>
       <r>    2.3891    1.0000 </r>
       <r>    4.4189    1.0000 </r>
       <r>    4.4271    1.0000 </r>
       <r>    4.4271    1.0000 </r>
       <r>    6.1859    0.0000 </r>
       <r>    6.2010    0.0000 </r>
       <r>    6.2010    0.0000 </r>
       <r>    7.4792    0.0000 </r>
       <r>    7.4792    0.0000 </r>
       <r>    7.4827    0.0000 </r>
       <r>    7.8844    0.0000 </r>
       <r>    8.0010    0.0000 </r>
       <r>    8.0010    0.0000 </r>
       <r>    9.2756    0.0000 </r>
       <r>    9.3208    0.0000 </r>
      </set>
      <set comment="kpoint 16">
       <r>   -7.6630    1.0000 </r>
       <r>   -7.6389    1.0000 </r>
       <r>   -7.6317    1.0000 </r>
       <r>   -7.4490    1.0000 </r>
       <r>   -7.4407    1.0000 </r>
       <r>   -7.4138    1.0000 </r>
       <r>   -0.7120    1.0000 </r>
       <r>   -0.7082    1.0000 </r>
       <r>   -0.7060    1.0000 </r>
       <r>   -0.5922    1.0000 </r>
       <r>   -0.5040    1.0000 </r>
       <r>   -0.4949    1.0000 </r>
       <r>    0.6542    1.0000 </r>
       <r>    0.7102    1.0000 </r>
       <r>    0.7931    1.0000 </r>
       <r>    1.2000    1.0000 </r>
       <r>    1.2899    1.0000 </r>
       <r>    1.2985    1.0000 </r>
       <r>    1.3495    1.0000 </r>
       <r>    1.4128    1.0000 </r>
       <r>    1.5148    1.0000 </r>
       <r>    2.5687    1.0000 </r>
       <r>    2.5750    1.0000 </r>
       <r>    2.6066    1.0000 </r>
       <r>    4.2085    1.0000 </r>
       <r>    4.2111    1.0000 </r>
       <r>    4.2236    1.0000 </r>
       <r>    6.3822    0.0000 </r>
       <r>    6.4621    0.0000 </r>
       <r>    6.4628    0.0000 </r>
       <r>    7.4606    0.0000 </r>
       <r>    7.4720    0.0000 </r>
       <r>    7.5120    0.0000 </r>
       <r>    7.6528    0.0000 </r>
       <r>    7.7779    0.0000 </r>
       <r>    7.8116    0.0000 </r>
       <r>    9.1164    0.0000 </r>
       <r>    9.1868    0.0000 </r>
      </set>
      <set comment="kpoint 17">
       <r>   -8.0700    1.0000 </r>
       <r>   -8.0171    1.0000 </r>
       <r>   -8.0073    1.0000 </r>
       <r>   -7.6620    1.0000 </r>
       <r>   -7.6494    1.0000 </r>
       <r>   -7.5866    1.0000 </r>
       <r>   -0.8919    1.0000 </r>
       <r>   -0.7919    1.0000 </r>
       <r>   -0.7765    1.0000 </r>
       <r>   -0.1039    1.0000 </r>
       <r>   -0.0728    1.0000 </r>
       <r>   -0.0301    1.0000 </r>
       <r>    0.5641    1.0000 </r>
       <r>    0.6095    1.0000 </r>
       <r>    0.7439    1.0000 </r>
       <r>    1.2406    1.0000 </r>
       <r>    1.2463    1.0000 </r>
       <r>    1.3866    1.0000 </r>
       <r>    2.4739    1.0000 </r>
       <r>    2.5197    1.0000 </r>
       <r>    2.5644    1.0000 </r>
       <r>    2.8157    1.0000 </r>
       <r>    2.9338    1.0000 </r>
       <r>    3.0228    1.0000 </r>
       <r>    3.7969    1.0000 </r>
       <r>    3.8044    1.0000 </r>
       <r>    3.8183    1.0000 </r>
       <r>    6.4290    0.0000 </r>
       <r>    6.7267    0.0000 </r>
       <r>    6.7488    0.0000 </r>
       <r>    6.9981    0.0000 </r>
       <r>    7.0388    0.0000 </r>
       <r>    7.0478    0.0000 </r>
       <r>    7.7213    0.0000 </r>
       <r>    7.8041    0.0000 </r>
       <r>    7.9356    0.0000 </r>
       <r>    8.7900    0.0000 </r>
       <r>    8.8584    0.0000 </r>
      </set>
      <set comment="kpoint 18">
       <r>   -8.5044    1.0000 </r>
       <r>   -8.4305    1.0000 </r>
       <r>   -8.4247    1.0000 </r>
       <r>   -7.8693    1.0000 </r>
       <r>   -7.8610    1.0000 </r>
       <r>   -7.7645    1.0000 </r>
       <r>   -0.7964    1.0000 </r>
       <r>   -0.6104    1.0000 </r>
       <r>   -0.6063    1.0000 </r>
       <r>    0.3351    1.0000 </r>
       <r>    0.3363    1.0000 </r>
       <r>    0.4773    1.0000 </r>
       <r>    0.5892    1.0000 </r>
       <r>    0.6587    1.0000 </r>
       <r>    0.7290    1.0000 </r>
       <r>    1.7128    1.0000 </r>
       <r>    1.7140    1.0000 </r>
       <r>    1.7394    1.0000 </r>
       <r>    2.7385    1.0000 </r>
       <r>    2.8732    1.0000 </r>
       <r>    2.9988    1.0000 </r>
       <r>    3.0350    1.0000 </r>
       <r>    3.0373    1.0000 </r>
       <r>    3.1948    1.0000 </r>
       <r>    3.4937    1.0000 </r>
       <r>    3.5595    1.0000 </r>
       <r>    3.5892    1.0000 </r>
       <r>    6.4933    0.0000 </r>
       <r>    6.6576    0.0000 </r>
       <r>    6.7223    0.0000 </r>
       <r>    6.7250    0.0000 </r>
       <r>    6.8963    0.0000 </r>
       <r>    6.9083    0.0000 </r>
       <r>    7.7323    0.0000 </r>
       <r>    7.7735    0.0000 </r>
       <r>    8.0660    0.0000 </r>
       <r>    8.4401    0.0000 </r>
       <r>    8.5157    0.0000 </r>
      </set>
      <set comment="kpoint 19">
       <r>   -7.7318    1.0000 </r>
       <r>   -7.7318    1.0000 </r>
       <r>   -7.6980    1.0000 </r>
       <r>   -7.5205    1.0000 </r>
       <r>   -7.4816    1.0000 </r>
       <r>   -7.4816    1.0000 </r>
       <r>   -1.0746    1.0000 </r>
       <r>   -1.0746    1.0000 </r>
       <r>   -1.0169    1.0000 </r>
       <r>   -0.5102    1.0000 </r>
       <r>   -0.4619    1.0000 </r>
       <r>   -0.4619    1.0000 </r>
       <r>    0.4201    1.0000 </r>
       <r>    0.4201    1.0000 </r>
       <r>    0.5793    1.0000 </r>
       <r>    1.2778    1.0000 </r>
       <r>    1.3273    1.0000 </r>
       <r>    1.3273    1.0000 </r>
       <r>    2.4673    1.0000 </r>
       <r>    2.5525    1.0000 </r>
       <r>    2.6183    1.0000 </r>
       <r>    2.6183    1.0000 </r>
       <r>    2.6913    1.0000 </r>
       <r>    2.6913    1.0000 </r>
       <r>    4.0815    1.0000 </r>
       <r>    4.0815    1.0000 </r>
       <r>    4.1385    1.0000 </r>
       <r>    6.6562    0.0000 </r>
       <r>    6.6562    0.0000 </r>
       <r>    6.6889    0.0000 </r>
       <r>    7.3011    0.0000 </r>
       <r>    7.3011    0.0000 </r>
       <r>    7.3765    0.0000 </r>
       <r>    8.1321    0.0000 </r>
       <r>    8.1325    0.0000 </r>
       <r>    8.2690    0.0000 </r>
       <r>    8.5902    0.0000 </r>
       <r>    8.8075    0.0000 </r>
      </set>
      <set comment="kpoint 20">
       <r>   -7.9071    1.0000 </r>
       <r>   -7.8775    1.0000 </r>
       <r>   -7.8539    1.0000 </r>
       <r>   -7.6091    1.0000 </r>
       <r>   -7.5805    1.0000 </r>
       <r>   -7.5470    1.0000 </r>
       <r>   -1.2260    1.0000 </r>
       <r>   -1.1887    1.0000 </r>
       <r>   -1.1479    1.0000 </r>
       <r>   -0.2804    1.0000 </r>
       <r>   -0.2221    1.0000 </r>
       <r>   -0.1694    1.0000 </r>
       <r>    0.3855    1.0000 </r>
       <r>    0.4185    1.0000 </r>
       <r>    0.5584    1.0000 </r>
       <r>    1.3594    1.0000 </r>
       <r>    1.3597    1.0000 </r>
       <r>    1.3878    1.0000 </r>
       <r>    2.4549    1.0000 </r>
       <r>    2.6764    1.0000 </r>
       <r>    2.7949    1.0000 </r>
       <r>    3.4204    1.0000 </r>
       <r>    3.4877    1.0000 </r>
       <r>    3.4887    1.0000 </r>
       <r>    3.6694    1.0000 </r>
       <r>    3.7654    1.0000 </r>
       <r>    3.8027    1.0000 </r>
       <r>    6.6468    0.0000 </r>
       <r>    6.6735    0.0000 </r>
       <r>    6.6736    0.0000 </r>
       <r>    6.9988    0.0000 </r>
       <r>    7.1628    0.0000 </r>
       <r>    7.1708    0.0000 </r>
       <r>    8.1744    0.0000 </r>
       <r>    8.3543    0.0000 </r>
       <r>    8.5004    0.0000 </r>
       <r>    8.6699    0.0000 </r>
       <r>    8.6797    0.0000 </r>
      </set>
     </set>
     <set comment="spin 2">
      <set comment="kpoint 1">
       <r>   -9.4973    1.0000 </r>
       <r>   -9.3998    1.0000 </r>
       <r>   -9.3998    1.0000 </r>
       <r>   -8.3427    1.0000 </r>
       <r>   -8.3427    1.0000 </r>
       <r>   -8.1823    1.0000 </r>
       <r>   -1.2558    1.0000 </r>
       <r>   -0.8029    1.0000 </r>
       <r>   -0.8029    1.0000 </r>
       <r>    1.5039    1.0000 </r>
       <r>    1.5039    1.0000 </r>
       <r>    1.5124    1.0000 </r>
       <r>    1.8681    1.0000 </r>
       <r>    1.8681    1.0000 </r>
       <r>    2.0427    1.0000 </r>
       <r>    2.0427    1.0000 </r>
       <r>    2.0491    1.0000 </r>
       <r>    2.3625    1.0000 </r>
       <r>    2.6762    1.0000 </r>
       <r>    2.6849    1.0000 </r>
       <r>    2.6849    1.0000 </r>
       <r>    3.2537    1.0000 </r>
       <r>    3.2537    1.0000 </r>
       <r>    3.9408    1.0000 </r>
       <r>    4.0893    1.0000 </r>
       <r>    4.6673    1.0000 </r>
       <r>    4.6673    1.0000 </r>
       <r>    7.0200    0.0000 </r>
       <r>    7.0393    0.0000 </r>
       <r>    7.0394    0.0000 </r>
       <r>    7.0964    0.0000 </r>
       <r>    7.2035    0.0000 </r>
       <r>    7.2043    0.0000 </r>
       <r>    7.2985    0.0000 </r>
       <r>    7.2992    0.0000 </r>
       <r>    7.3363    0.0000 </r>
       <r>    7.5439    0.0000 </r>
       <r>    7.5751    0.0000 </r>
      </set>
      <set comment="kpoint 2">
       <r>   -8.9975    1.0000 </r>
       <r>   -8.9080    1.0000 </r>
       <r>   -8.9068    1.0000 </r>
       <r>   -8.0999    1.0000 </r>
       <r>   -8.0979    1.0000 </r>
       <r>   -7.9667    1.0000 </r>
       <r>   -0.8025    1.0000 </r>
       <r>   -0.4224    1.0000 </r>
       <r>   -0.4216    1.0000 </r>
       <r>    0.7541    1.0000 </r>
       <r>    0.7700    1.0000 </r>
       <r>    0.7802    1.0000 </r>
       <r>    1.1210    1.0000 </r>
       <r>    1.1222    1.0000 </r>
       <r>    1.3701    1.0000 </r>
       <r>    1.9509    1.0000 </r>
       <r>    1.9601    1.0000 </r>
       <r>    1.9941    1.0000 </r>
       <r>    2.5142    1.0000 </r>
       <r>    2.5284    1.0000 </r>
       <r>    2.5345    1.0000 </r>
       <r>    3.2294    1.0000 </r>
       <r>    3.2820    1.0000 </r>
       <r>    3.7212    1.0000 </r>
       <r>    3.8281    1.0000 </r>
       <r>    3.9607    1.0000 </r>
       <r>    3.9828    1.0000 </r>
       <r>    6.3697    0.0000 </r>
       <r>    6.7188    0.0000 </r>
       <r>    6.7252    0.0000 </r>
       <r>    6.9117    0.0000 </r>
       <r>    6.9287    0.0000 </r>
       <r>    6.9376    0.0000 </r>
       <r>    7.2414    0.0000 </r>
       <r>    7.2469    0.0000 </r>
       <r>    7.3501    0.0000 </r>
       <r>    8.2012    0.0000 </r>
       <r>    8.2175    0.0000 </r>
      </set>
      <set comment="kpoint 3">
       <r>   -8.3011    1.0000 </r>
       <r>   -8.2362    1.0000 </r>
       <r>   -8.2282    1.0000 </r>
       <r>   -7.7744    1.0000 </r>
       <r>   -7.7634    1.0000 </r>
       <r>   -7.6826    1.0000 </r>
       <r>   -0.8703    1.0000 </r>
       <r>   -0.7387    1.0000 </r>
       <r>   -0.7279    1.0000 </r>
       <r>    0.1438    1.0000 </r>
       <r>    0.1669    1.0000 </r>
       <r>    0.2994    1.0000 </r>
       <r>    0.5052    1.0000 </r>
       <r>    0.6135    1.0000 </r>
       <r>    0.7179    1.0000 </r>
       <r>    1.4669    1.0000 </r>
       <r>    1.4798    1.0000 </r>
       <r>    1.5266    1.0000 </r>
       <r>    2.7476    1.0000 </r>
       <r>    2.8817    1.0000 </r>
       <r>    2.9333    1.0000 </r>
       <r>    2.9388    1.0000 </r>
       <r>    2.9841    1.0000 </r>
       <r>    3.1193    1.0000 </r>
       <r>    3.5963    1.0000 </r>
       <r>    3.6344    1.0000 </r>
       <r>    3.6531    1.0000 </r>
       <r>    6.4497    0.0000 </r>
       <r>    6.6227    0.0000 </r>
       <r>    6.6719    0.0000 </r>
       <r>    6.8268    0.0000 </r>
       <r>    6.9781    0.0000 </r>
       <r>    6.9881    0.0000 </r>
       <r>    7.8013    0.0000 </r>
       <r>    7.8063    0.0000 </r>
       <r>    8.0557    0.0000 </r>
       <r>    8.6486    0.0000 </r>
       <r>    8.6811    0.0000 </r>
      </set>
      <set comment="kpoint 4">
       <r>   -7.8133    1.0000 </r>
       <r>   -7.7984    1.0000 </r>
       <r>   -7.7687    1.0000 </r>
       <r>   -7.5671    1.0000 </r>
       <r>   -7.5320    1.0000 </r>
       <r>   -7.5155    1.0000 </r>
       <r>   -1.2287    1.0000 </r>
       <r>   -1.2096    1.0000 </r>
       <r>   -1.1605    1.0000 </r>
       <r>   -0.3829    1.0000 </r>
       <r>   -0.3199    1.0000 </r>
       <r>   -0.3001    1.0000 </r>
       <r>    0.3807    1.0000 </r>
       <r>    0.3921    1.0000 </r>
       <r>    0.5428    1.0000 </r>
       <r>    1.3107    1.0000 </r>
       <r>    1.3187    1.0000 </r>
       <r>    1.3250    1.0000 </r>
       <r>    2.4636    1.0000 </r>
       <r>    2.6929    1.0000 </r>
       <r>    2.7390    1.0000 </r>
       <r>    3.1381    1.0000 </r>
       <r>    3.1921    1.0000 </r>
       <r>    3.2139    1.0000 </r>
       <r>    3.9216    1.0000 </r>
       <r>    3.9454    1.0000 </r>
       <r>    3.9965    1.0000 </r>
       <r>    6.6767    0.0000 </r>
       <r>    6.6968    0.0000 </r>
       <r>    6.7016    0.0000 </r>
       <r>    7.1351    0.0000 </r>
       <r>    7.2065    0.0000 </r>
       <r>    7.2310    0.0000 </r>
       <r>    8.2789    0.0000 </r>
       <r>    8.3577    0.0000 </r>
       <r>    8.5061    0.0000 </r>
       <r>    8.6233    0.0000 </r>
       <r>    8.6879    0.0000 </r>
      </set>
      <set comment="kpoint 5">
       <r>   -7.9982    1.0000 </r>
       <r>   -7.9554    1.0000 </r>
       <r>   -7.9388    1.0000 </r>
       <r>   -7.6415    1.0000 </r>
       <r>   -7.6207    1.0000 </r>
       <r>   -7.5712    1.0000 </r>
       <r>   -1.0907    1.0000 </r>
       <r>   -1.0273    1.0000 </r>
       <r>   -0.9979    1.0000 </r>
       <r>   -0.1933    1.0000 </r>
       <r>   -0.1490    1.0000 </r>
       <r>   -0.0836    1.0000 </r>
       <r>    0.4448    1.0000 </r>
       <r>    0.4926    1.0000 </r>
       <r>    0.6302    1.0000 </r>
       <r>    1.3550    1.0000 </r>
       <r>    1.3682    1.0000 </r>
       <r>    1.3957    1.0000 </r>
       <r>    2.5633    1.0000 </r>
       <r>    2.7458    1.0000 </r>
       <r>    2.8812    1.0000 </r>
       <r>    3.0557    1.0000 </r>
       <r>    3.0773    1.0000 </r>
       <r>    3.1270    1.0000 </r>
       <r>    3.7572    1.0000 </r>
       <r>    3.8012    1.0000 </r>
       <r>    3.8263    1.0000 </r>
       <r>    6.5991    0.0000 </r>
       <r>    6.6736    0.0000 </r>
       <r>    6.7004    0.0000 </r>
       <r>    6.9471    0.0000 </r>
       <r>    7.1049    0.0000 </r>
       <r>    7.1077    0.0000 </r>
       <r>    8.0932    0.0000 </r>
       <r>    8.1080    0.0000 </r>
       <r>    8.3350    0.0000 </r>
       <r>    8.7021    0.0000 </r>
       <r>    8.7308    0.0000 </r>
      </set>
      <set comment="kpoint 6">
       <r>   -8.6539    1.0000 </r>
       <r>   -8.5739    1.0000 </r>
       <r>   -8.5704    1.0000 </r>
       <r>   -7.9368    1.0000 </r>
       <r>   -7.9316    1.0000 </r>
       <r>   -7.8233    1.0000 </r>
       <r>   -0.7202    1.0000 </r>
       <r>   -0.4684    1.0000 </r>
       <r>   -0.4673    1.0000 </r>
       <r>    0.4986    1.0000 </r>
       <r>    0.5180    1.0000 </r>
       <r>    0.5465    1.0000 </r>
       <r>    0.7623    1.0000 </r>
       <r>    0.7963    1.0000 </r>
       <r>    0.8167    1.0000 </r>
       <r>    1.6600    1.0000 </r>
       <r>    1.6709    1.0000 </r>
       <r>    1.7241    1.0000 </r>
       <r>    2.7550    1.0000 </r>
       <r>    2.7834    1.0000 </r>
       <r>    2.7865    1.0000 </r>
       <r>    3.0088    1.0000 </r>
       <r>    3.1006    1.0000 </r>
       <r>    3.4119    1.0000 </r>
       <r>    3.6158    1.0000 </r>
       <r>    3.6562    1.0000 </r>
       <r>    3.6825    1.0000 </r>
       <r>    6.3326    0.0000 </r>
       <r>    6.6219    0.0000 </r>
       <r>    6.6692    0.0000 </r>
       <r>    6.8253    0.0000 </r>
       <r>    6.9066    0.0000 </r>
       <r>    6.9156    0.0000 </r>
       <r>    7.4855    0.0000 </r>
       <r>    7.4898    0.0000 </r>
       <r>    7.7045    0.0000 </r>
       <r>    8.4694    0.0000 </r>
       <r>    8.5078    0.0000 </r>
      </set>
      <set comment="kpoint 7">
       <r>   -9.2884    1.0000 </r>
       <r>   -9.1936    1.0000 </r>
       <r>   -9.1933    1.0000 </r>
       <r>   -8.2406    1.0000 </r>
       <r>   -8.2400    1.0000 </r>
       <r>   -8.0914    1.0000 </r>
       <r>   -1.0355    1.0000 </r>
       <r>   -0.6003    1.0000 </r>
       <r>   -0.6000    1.0000 </r>
       <r>    1.1283    1.0000 </r>
       <r>    1.1373    1.0000 </r>
       <r>    1.1433    1.0000 </r>
       <r>    1.5128    1.0000 </r>
       <r>    1.5135    1.0000 </r>
       <r>    1.9035    1.0000 </r>
       <r>    2.2515    1.0000 </r>
       <r>    2.2569    1.0000 </r>
       <r>    2.2626    1.0000 </r>
       <r>    2.3241    1.0000 </r>
       <r>    2.3300    1.0000 </r>
       <r>    2.3324    1.0000 </r>
       <r>    3.3265    1.0000 </r>
       <r>    3.3475    1.0000 </r>
       <r>    3.9358    1.0000 </r>
       <r>    4.0131    1.0000 </r>
       <r>    4.3619    1.0000 </r>
       <r>    4.3705    1.0000 </r>
       <r>    6.6282    0.0000 </r>
       <r>    6.8486    0.0000 </r>
       <r>    6.8647    0.0000 </r>
       <r>    7.0288    0.0000 </r>
       <r>    7.0463    0.0000 </r>
       <r>    7.1013    0.0000 </r>
       <r>    7.1466    0.0000 </r>
       <r>    7.1706    0.0000 </r>
       <r>    7.1860    0.0000 </r>
       <r>    7.8722    0.0000 </r>
       <r>    7.9035    0.0000 </r>
      </set>
      <set comment="kpoint 8">
       <r>   -9.6061    1.0000 </r>
       <r>   -9.5075    1.0000 </r>
       <r>   -9.5075    1.0000 </r>
       <r>   -8.3962    1.0000 </r>
       <r>   -8.3962    1.0000 </r>
       <r>   -8.2300    1.0000 </r>
       <r>   -1.3810    1.0000 </r>
       <r>   -0.9226    1.0000 </r>
       <r>   -0.9226    1.0000 </r>
       <r>    1.7339    1.0000 </r>
       <r>    1.7373    1.0000 </r>
       <r>    1.7421    1.0000 </r>
       <r>    1.9250    1.0000 </r>
       <r>    1.9282    1.0000 </r>
       <r>    1.9324    1.0000 </r>
       <r>    2.1332    1.0000 </r>
       <r>    2.1333    1.0000 </r>
       <r>    2.6983    1.0000 </r>
       <r>    2.8829    1.0000 </r>
       <r>    2.8898    1.0000 </r>
       <r>    2.8976    1.0000 </r>
       <r>    3.1080    1.0000 </r>
       <r>    3.1173    1.0000 </r>
       <r>    3.8134    1.0000 </r>
       <r>    4.1042    1.0000 </r>
       <r>    4.8117    1.0000 </r>
       <r>    4.8126    1.0000 </r>
       <r>    7.1723    0.0000 </r>
       <r>    7.1798    0.0000 </r>
       <r>    7.1912    0.0000 </r>
       <r>    7.3322    0.0000 </r>
       <r>    7.3395    0.0000 </r>
       <r>    7.3504    0.0000 </r>
       <r>    7.3546    0.0000 </r>
       <r>    7.3751    0.0000 </r>
       <r>    7.4016    0.0000 </r>
       <r>    7.4363    0.0000 </r>
       <r>    7.4649    0.0000 </r>
      </set>
      <set comment="kpoint 9">
       <r>   -8.4231    1.0000 </r>
       <r>   -8.3483    1.0000 </r>
       <r>   -8.3483    1.0000 </r>
       <r>   -7.8197    1.0000 </r>
       <r>   -7.8197    1.0000 </r>
       <r>   -7.7230    1.0000 </r>
       <r>   -0.6627    1.0000 </r>
       <r>   -0.4619    1.0000 </r>
       <r>   -0.4619    1.0000 </r>
       <r>    0.4443    1.0000 </r>
       <r>    0.4443    1.0000 </r>
       <r>    0.5136    1.0000 </r>
       <r>    0.6273    1.0000 </r>
       <r>    0.7557    1.0000 </r>
       <r>    0.7557    1.0000 </r>
       <r>    1.1680    1.0000 </r>
       <r>    1.1680    1.0000 </r>
       <r>    1.3864    1.0000 </r>
       <r>    2.3658    1.0000 </r>
       <r>    2.3658    1.0000 </r>
       <r>    2.3974    1.0000 </r>
       <r>    3.2679    1.0000 </r>
       <r>    3.2679    1.0000 </r>
       <r>    3.4481    1.0000 </r>
       <r>    3.6738    1.0000 </r>
       <r>    3.6738    1.0000 </r>
       <r>    3.7008    1.0000 </r>
       <r>    6.1636    0.0000 </r>
       <r>    6.5608    0.0000 </r>
       <r>    6.5608    0.0000 </r>
       <r>    6.9483    0.0000 </r>
       <r>    6.9587    0.0000 </r>
       <r>    6.9587    0.0000 </r>
       <r>    7.3471    0.0000 </r>
       <r>    7.3471    0.0000 </r>
       <r>    7.4833    0.0000 </r>
       <r>    8.7954    0.0000 </r>
       <r>    8.8521    0.0000 </r>
      </set>
      <set comment="kpoint 10">
       <r>   -7.8449    1.0000 </r>
       <r>   -7.8062    1.0000 </r>
       <r>   -7.7962    1.0000 </r>
       <r>   -7.5471    1.0000 </r>
       <r>   -7.5350    1.0000 </r>
       <r>   -7.4907    1.0000 </r>
       <r>   -0.8108    1.0000 </r>
       <r>   -0.7255    1.0000 </r>
       <r>   -0.7080    1.0000 </r>
       <r>   -0.4203    1.0000 </r>
       <r>   -0.3982    1.0000 </r>
       <r>   -0.3973    1.0000 </r>
       <r>    0.6388    1.0000 </r>
       <r>    0.6522    1.0000 </r>
       <r>    0.7864    1.0000 </r>
       <r>    1.2064    1.0000 </r>
       <r>    1.2249    1.0000 </r>
       <r>    1.3951    1.0000 </r>
       <r>    1.8593    1.0000 </r>
       <r>    1.9350    1.0000 </r>
       <r>    1.9818    1.0000 </r>
       <r>    2.7391    1.0000 </r>
       <r>    2.8274    1.0000 </r>
       <r>    2.8317    1.0000 </r>
       <r>    3.9733    1.0000 </r>
       <r>    3.9902    1.0000 </r>
       <r>    3.9965    1.0000 </r>
       <r>    6.4900    0.0000 </r>
       <r>    6.7193    0.0000 </r>
       <r>    6.7209    0.0000 </r>
       <r>    7.1737    0.0000 </r>
       <r>    7.2555    0.0000 </r>
       <r>    7.2713    0.0000 </r>
       <r>    7.6691    0.0000 </r>
       <r>    7.7569    0.0000 </r>
       <r>    7.7785    0.0000 </r>
       <r>    8.9285    0.0000 </r>
       <r>    9.0551    0.0000 </r>
      </set>
      <set comment="kpoint 11">
       <r>   -7.6859    1.0000 </r>
       <r>   -7.6724    1.0000 </r>
       <r>   -7.6513    1.0000 </r>
       <r>   -7.4779    1.0000 </r>
       <r>   -7.4536    1.0000 </r>
       <r>   -7.4387    1.0000 </r>
       <r>   -0.8248    1.0000 </r>
       <r>   -0.7949    1.0000 </r>
       <r>   -0.7531    1.0000 </r>
       <r>   -0.6323    1.0000 </r>
       <r>   -0.6092    1.0000 </r>
       <r>   -0.6067    1.0000 </r>
       <r>    0.4987    1.0000 </r>
       <r>    0.5144    1.0000 </r>
       <r>    0.6619    1.0000 </r>
       <r>    1.2924    1.0000 </r>
       <r>    1.3439    1.0000 </r>
       <r>    1.4158    1.0000 </r>
       <r>    1.8099    1.0000 </r>
       <r>    1.9267    1.0000 </r>
       <r>    1.9526    1.0000 </r>
       <r>    2.5329    1.0000 </r>
       <r>    2.6340    1.0000 </r>
       <r>    2.6438    1.0000 </r>
       <r>    4.1625    1.0000 </r>
       <r>    4.1639    1.0000 </r>
       <r>    4.2029    1.0000 </r>
       <r>    6.5066    0.0000 </r>
       <r>    6.5578    0.0000 </r>
       <r>    6.5681    0.0000 </r>
       <r>    7.4157    0.0000 </r>
       <r>    7.4808    0.0000 </r>
       <r>    7.5586    0.0000 </r>
       <r>    7.7996    0.0000 </r>
       <r>    7.8264    0.0000 </r>
       <r>    7.9082    0.0000 </r>
       <r>    8.9098    0.0000 </r>
       <r>    9.0510    0.0000 </r>
      </set>
      <set comment="kpoint 12">
       <r>   -8.1095    1.0000 </r>
       <r>   -8.0498    1.0000 </r>
       <r>   -8.0466    1.0000 </r>
       <r>   -7.6700    1.0000 </r>
       <r>   -7.6658    1.0000 </r>
       <r>   -7.5938    1.0000 </r>
       <r>   -0.7418    1.0000 </r>
       <r>   -0.6078    1.0000 </r>
       <r>   -0.6039    1.0000 </r>
       <r>   -0.0277    1.0000 </r>
       <r>   -0.0144    1.0000 </r>
       <r>   -0.0011    1.0000 </r>
       <r>    0.7052    1.0000 </r>
       <r>    0.7473    1.0000 </r>
       <r>    0.8168    1.0000 </r>
       <r>    1.1598    1.0000 </r>
       <r>    1.1616    1.0000 </r>
       <r>    1.3561    1.0000 </r>
       <r>    2.0479    1.0000 </r>
       <r>    2.0982    1.0000 </r>
       <r>    2.0998    1.0000 </r>
       <r>    3.0257    1.0000 </r>
       <r>    3.0709    1.0000 </r>
       <r>    3.1416    1.0000 </r>
       <r>    3.7720    1.0000 </r>
       <r>    3.7803    1.0000 </r>
       <r>    3.8094    1.0000 </r>
       <r>    6.3125    0.0000 </r>
       <r>    6.7390    0.0000 </r>
       <r>    6.7475    0.0000 </r>
       <r>    7.0157    0.0000 </r>
       <r>    7.0230    0.0000 </r>
       <r>    7.0378    0.0000 </r>
       <r>    7.4845    0.0000 </r>
       <r>    7.5231    0.0000 </r>
       <r>    7.6506    0.0000 </r>
       <r>    8.9141    0.0000 </r>
       <r>    9.0012    0.0000 </r>
      </set>
      <set comment="kpoint 13">
       <r>   -8.7328    1.0000 </r>
       <r>   -8.6492    1.0000 </r>
       <r>   -8.6481    1.0000 </r>
       <r>   -7.9710    1.0000 </r>
       <r>   -7.9693    1.0000 </r>
       <r>   -7.8538    1.0000 </r>
       <r>   -0.6751    1.0000 </r>
       <r>   -0.3753    1.0000 </r>
       <r>   -0.3740    1.0000 </r>
       <r>    0.6148    1.0000 </r>
       <r>    0.6176    1.0000 </r>
       <r>    0.6328    1.0000 </r>
       <r>    0.9342    1.0000 </r>
       <r>    0.9411    1.0000 </r>
       <r>    1.0251    1.0000 </r>
       <r>    1.4233    1.0000 </r>
       <r>    1.4241    1.0000 </r>
       <r>    1.5810    1.0000 </r>
       <r>    2.5577    1.0000 </r>
       <r>    2.5687    1.0000 </r>
       <r>    2.5851    1.0000 </r>
       <r>    3.3234    1.0000 </r>
       <r>    3.3568    1.0000 </r>
       <r>    3.6512    1.0000 </r>
       <r>    3.7055    1.0000 </r>
       <r>    3.7369    1.0000 </r>
       <r>    3.7463    1.0000 </r>
       <r>    6.2092    0.0000 </r>
       <r>    6.5462    0.0000 </r>
       <r>    6.5637    0.0000 </r>
       <r>    6.8870    0.0000 </r>
       <r>    6.8958    0.0000 </r>
       <r>    6.9076    0.0000 </r>
       <r>    7.2703    0.0000 </r>
       <r>    7.2750    0.0000 </r>
       <r>    7.3644    0.0000 </r>
       <r>    8.5578    0.0000 </r>
       <r>    8.5704    0.0000 </r>
      </set>
      <set comment="kpoint 14">
       <r>   -9.1886    1.0000 </r>
       <r>   -9.0956    1.0000 </r>
       <r>   -9.0947    1.0000 </r>
       <r>   -8.1926    1.0000 </r>
       <r>   -8.1911    1.0000 </r>
       <r>   -8.0486    1.0000 </r>
       <r>   -0.9481    1.0000 </r>
       <r>   -0.5286    1.0000 </r>
       <r>   -0.5283    1.0000 </r>
       <r>    0.9681    1.0000 </r>
       <r>    0.9886    1.0000 </r>
       <r>    0.9901    1.0000 </r>
       <r>    1.3241    1.0000 </r>
       <r>    1.3259    1.0000 </r>
       <r>    1.6498    1.0000 </r>
       <r>    2.3186    1.0000 </r>
       <r>    2.3208    1.0000 </r>
       <r>    2.3420    1.0000 </r>
       <r>    2.3636    1.0000 </r>
       <r>    2.3788    1.0000 </r>
       <r>    2.3810    1.0000 </r>
       <r>    3.1711    1.0000 </r>
       <r>    3.2274    1.0000 </r>
       <r>    3.7877    1.0000 </r>
       <r>    3.9503    1.0000 </r>
       <r>    4.2045    1.0000 </r>
       <r>    4.2271    1.0000 </r>
       <r>    6.5189    0.0000 </r>
       <r>    6.8280    0.0000 </r>
       <r>    6.8680    0.0000 </r>
       <r>    6.9811    0.0000 </r>
       <r>    7.0546    0.0000 </r>
       <r>    7.0669    0.0000 </r>
       <r>    7.2023    0.0000 </r>
       <r>    7.2131    0.0000 </r>
       <r>    7.3108    0.0000 </r>
       <r>    7.9247    0.0000 </r>
       <r>    7.9350    0.0000 </r>
      </set>
[...]
       <r>     4.7846     0.0000    26.9375 </r>
       <r>     4.8540     0.9005    27.0000 </r>
       <r>     4.9234     0.0000    27.0000 </r>
       <r>     4.9928     0.0000    27.0000 </r>
       <r>     5.0622     0.0000    27.0000 </r>
       <r>     5.1316     0.0000    27.0000 </r>
       <r>     5.2010     0.0000    27.0000 </r>
       <r>     5.2704     0.0000    27.0000 </r>
       <r>     5.3398     0.0000    27.0000 </r>
       <r>     5.4092     0.0000    27.0000 </r>
       <r>     5.4786     0.0000    27.0000 </r>
       <r>     5.5480     0.0000    27.0000 </r>
       <r>     5.6174     0.0000    27.0000 </r>
       <r>     5.6868     0.0000    27.0000 </r>
       <r>     5.7562     0.0000    27.0000 </r>
       <r>     5.8256     0.0000    27.0000 </r>
       <r>     5.8950     0.0000    27.0000 </r>
       <r>     5.9644     0.0000    27.0000 </r>
       <r>     6.0338     0.0000    27.0000 </r>
       <r>     6.1032     0.0000    27.0000 </r>
       <r>     6.1726     0.4184    27.0290 </r>
       <r>     6.2420     2.2834    27.1875 </r>
       <r>     6.3114     0.3959    27.2150 </r>
       <r>     6.3808     2.6332    27.3977 </r>
       <r>     6.4502     1.9724    27.5382 </r>
       <r>     6.5196     4.6129    27.8584 </r>
       <r>     6.5890     4.7782    28.1921 </r>
       <r>     6.6584     4.8796    28.5309 </r>
       <r>     6.7278    12.2307    29.3812 </r>
       <r>     6.7972     3.9626    29.6563 </r>
       <r>     6.8666     3.8830    29.9257 </r>
       <r>     6.9360     8.1223    30.4898 </r>
       <r>     7.0054     6.3061    30.9275 </r>
       <r>     7.0748     8.6321    31.5271 </r>
       <r>     7.1442     4.3502    31.8290 </r>
       <r>     7.2136     7.8348    32.3727 </r>
       <r>     7.2830     6.5648    32.8312 </r>
       <r>     7.3524     5.2548    33.2012 </r>
       <r>     7.4218     4.1483    33.4925 </r>
       <r>     7.4912     7.2578    33.9968 </r>
       <r>     7.5606     3.6074    34.2501 </r>
       <r>     7.6300     0.9007    34.3127 </r>
       <r>     7.6994     2.9107    34.5146 </r>
       <r>     7.7688     3.1744    34.7350 </r>
       <r>     7.8382     7.3358    35.2470 </r>
       <r>     7.9076     2.4954    35.4232 </r>
       <r>     7.9770     2.4579    35.5938 </r>
       <r>     8.0464     0.9809    35.6618 </r>
       <r>     8.1158     2.9494    35.8665 </r>
       <r>     8.1852     1.4439    35.9668 </r>
       <r>     8.2546     1.7788    36.0922 </r>
       <r>     8.3240     1.4121    36.1924 </r>
       <r>     8.3933     2.1809    36.3437 </r>
       <r>     8.4627     0.4930    36.3780 </r>
       <r>     8.5321     3.5887    36.6270 </r>
       <r>     8.6015     2.1950    36.7797 </r>
       <r>     8.6709     2.7973    36.9755 </r>
       <r>     8.7403     3.2878    37.2037 </r>
       <r>     8.8097     2.1289    37.3514 </r>
       <r>     8.8791     1.8540    37.4809 </r>
       <r>     8.9485     2.0808    37.6254 </r>
       <r>     9.0179     0.8593    37.6875 </r>
       <r>     9.0873     1.8012    37.8125 </r>
       <r>     9.1567     0.9006    37.8750 </r>
       <r>     9.2261     0.9006    37.9375 </r>
       <r>     9.2955     0.4493    37.9687 </r>
       <r>     9.3649     0.4502    38.0000 </r>
       <r>     9.4343     0.0000    38.0000 </r>
       <r>     9.5037     0.0000    38.0000 </r>
       <r>     9.5731     0.0000    38.0000 </r>
       <r>     9.6425     0.0000    38.0000 </r>
       <r>     9.7119     0.0000    38.0000 </r>
       <r>     9.7813     0.0000    38.0000 </r>
       <r>     9.8507     0.0000    38.0000 </r>
       <r>     9.9201     0.0000    38.0000 </r>
       <r>     9.9895     0.0000    38.0000 </r>
       <r>    10.0589     0.0000    38.0000 </r>
       <r>    10.1283     0.0000    38.0000 </r>
       <r>    10.1977     0.0000    38.0000 </r>
       <r>    10.2671     0.0000    38.0000 </r>
      </set>
      <set comment="spin 2">
       <r>   -10.5524     0.0000     0.0000 </r>
       <r>   -10.4831     0.0000     0.0000 </r>
       <r>   -10.4137     0.0000     0.0000 </r>
       <r>   -10.3443     0.0000     0.0000 </r>
       <r>   -10.2749     0.0000     0.0000 </r>
       <r>   -10.2055     0.0000     0.0000 </r>
       <r>   -10.1361     0.0000     0.0000 </r>
       <r>   -10.0667     0.0000     0.0000 </r>
       <r>    -9.9973     0.0000     0.0000 </r>
       <r>    -9.9279     0.0000     0.0000 </r>
       <r>    -9.8585     0.0000     0.0000 </r>
       <r>    -9.7891     0.0000     0.0000 </r>
       <r>    -9.7197     0.0000     0.0000 </r>
       <r>    -9.6503     0.0000     0.0000 </r>
       <r>    -9.5809     0.4502     0.0312 </r>
       <r>    -9.5115     0.2688     0.0499 </r>
       <r>    -9.4421     1.0820     0.1250 </r>
       <r>    -9.3727     0.9005     0.1875 </r>
       <r>    -9.3033     0.0160     0.1886 </r>
       <r>    -9.2339     0.8846     0.2500 </r>
       <r>    -9.1645     2.2513     0.4062 </r>
       <r>    -9.0951     0.4555     0.4379 </r>
       <r>    -9.0257     0.4451     0.4688 </r>
       <r>    -8.9563     0.9006     0.5312 </r>
       <r>    -8.8869     1.7977     0.6560 </r>
       <r>    -8.8175     0.0000     0.6562 </r>
       <r>    -8.7481     0.0136     0.6572 </r>
       <r>    -8.6787     0.8873     0.7188 </r>
       <r>    -8.6093     2.7016     0.9063 </r>
       <r>    -8.5399     1.8012     1.0312 </r>
       <r>    -8.4705     0.4503     1.0625 </r>
       <r>    -8.4011     1.5704     1.1715 </r>
       <r>    -8.3317     2.4190     1.3394 </r>
       <r>    -8.2623     0.9024     1.4064 </r>
       <r>    -8.1929     4.4766     1.7170 </r>
       <r>    -8.1235     0.9472     1.7828 </r>
       <r>    -8.0541     4.9461     2.1260 </r>
       <r>    -7.9847     4.4926     2.4386 </r>
       <r>    -7.9153     6.3074     2.8781 </r>
       <r>    -7.8459     3.3126     3.1088 </r>
       <r>    -7.7765     6.5894     3.5666 </r>
       <r>    -7.7071     4.0302     3.8465 </r>
       <r>    -7.6377     9.7714     4.5250 </r>
       <r>    -7.5683     5.9580     4.9433 </r>
       <r>    -7.4989     6.7580     5.4139 </r>
       <r>    -7.4295     6.0559     5.8348 </r>
       <r>    -7.3601     2.3193     5.9995 </r>
       <r>    -7.2907     0.0000     6.0000 </r>
       <r>    -7.2213     0.0000     6.0000 </r>
       <r>    -7.1519     0.0000     6.0000 </r>
       <r>    -7.0825     0.0000     6.0000 </r>
       <r>    -7.0131     0.0000     6.0000 </r>
       <r>    -6.9437     0.0000     6.0000 </r>
       <r>    -6.8743     0.0000     6.0000 </r>
       <r>    -6.8049     0.0000     6.0000 </r>
       <r>    -6.7355     0.0000     6.0000 </r>
       <r>    -6.6661     0.0000     6.0000 </r>
       <r>    -6.5967     0.0000     6.0000 </r>
       <r>    -6.5273     0.0000     6.0000 </r>
       <r>    -6.4579     0.0000     6.0000 </r>
       <r>    -6.3885     0.0000     6.0000 </r>
       <r>    -6.3191     0.0000     6.0000 </r>
       <r>    -6.2497     0.0000     6.0000 </r>
       <r>    -6.1803     0.0000     6.0000 </r>
       <r>    -6.1109     0.0000     6.0000 </r>
       <r>    -6.0415     0.0000     6.0000 </r>
       <r>    -5.9721     0.0000     6.0000 </r>
       <r>    -5.9027     0.0000     6.0000 </r>
       <r>    -5.8333     0.0000     6.0000 </r>
       <r>    -5.7640     0.0000     6.0000 </r>
       <r>    -5.6946     0.0000     6.0000 </r>
       <r>    -5.6252     0.0000     6.0000 </r>
       <r>    -5.5558     0.0000     6.0000 </r>
       <r>    -5.4864     0.0000     6.0000 </r>
       <r>    -5.4170     0.0000     6.0000 </r>
       <r>    -5.3476     0.0000     6.0000 </r>
       <r>    -5.2782     0.0000     6.0000 </r>
       <r>    -5.2088     0.0000     6.0000 </r>
       <r>    -5.1394     0.0000     6.0000 </r>
       <r>    -5.0700     0.0000     6.0000 </r>
       <r>    -5.0006     0.0000     6.0000 </r>
       <r>    -4.9312     0.0000     6.0000 </r>
       <r>    -4.8618     0.0000     6.0000 </r>
       <r>    -4.7924     0.0000     6.0000 </r>
       <r>    -4.7230     0.0000     6.0000 </r>
       <r>    -4.6536     0.0000     6.0000 </r>
       <r>    -4.5842     0.0000     6.0000 </r>
       <r>    -4.5148     0.0000     6.0000 </r>
       <r>    -4.4454     0.0000     6.0000 </r>
       <r>    -4.3760     0.0000     6.0000 </r>
       <r>    -4.3066     0.0000     6.0000 </r>
       <r>    -4.2372     0.0000     6.0000 </r>
       <r>    -4.1678     0.0000     6.0000 </r>
       <r>    -4.0984     0.0000     6.0000 </r>
       <r>    -4.0290     0.0000     6.0000 </r>
       <r>    -3.9596     0.0000     6.0000 </r>
       <r>    -3.8902     0.0000     6.0000 </r>
       <r>    -3.8208     0.0000     6.0000 </r>
       <r>    -3.7514     0.0000     6.0000 </r>
       <r>    -3.6820     0.0000     6.0000 </r>
       <r>    -3.6126     0.0000     6.0000 </r>
       <r>    -3.5432     0.0000     6.0000 </r>
       <r>    -3.4738     0.0000     6.0000 </r>
       <r>    -3.4044     0.0000     6.0000 </r>
       <r>    -3.3350     0.0000     6.0000 </r>
       <r>    -3.2656     0.0000     6.0000 </r>
       <r>    -3.1962     0.0000     6.0000 </r>
       <r>    -3.1268     0.0000     6.0000 </r>
       <r>    -3.0574     0.0000     6.0000 </r>
       <r>    -2.9880     0.0000     6.0000 </r>
       <r>    -2.9186     0.0000     6.0000 </r>
       <r>    -2.8492     0.0000     6.0000 </r>
       <r>    -2.7798     0.0000     6.0000 </r>
       <r>    -2.7104     0.0000     6.0000 </r>
       <r>    -2.6410     0.0000     6.0000 </r>
       <r>    -2.5716     0.0000     6.0000 </r>
       <r>    -2.5022     0.0000     6.0000 </r>
       <r>    -2.4328     0.0000     6.0000 </r>
       <r>    -2.3634     0.0000     6.0000 </r>
       <r>    -2.2940     0.0000     6.0000 </r>
       <r>    -2.2246     0.0000     6.0000 </r>
       <r>    -2.1552     0.0000     6.0000 </r>
       <r>    -2.0858     0.0000     6.0000 </r>
       <r>    -2.0164     0.0000     6.0000 </r>
       <r>    -1.9470     0.0000     6.0000 </r>
       <r>    -1.8776     0.0000     6.0000 </r>
       <r>    -1.8082     0.0000     6.0000 </r>
       <r>    -1.7388     0.0000     6.0000 </r>
       <r>    -1.6694     0.0000     6.0000 </r>
       <r>    -1.6000     0.0000     6.0000 </r>
       <r>    -1.5306     0.0000     6.0000 </r>
       <r>    -1.4612     0.0000     6.0000 </r>
       <r>    -1.3918     0.0281     6.0020 </r>
       <r>    -1.3224     0.4222     6.0312 </r>
       <r>    -1.2530     0.2939     6.0516 </r>
       <r>    -1.1836     2.7509     6.2426 </r>
       <r>    -1.1142     1.4584     6.3438 </r>
       <r>    -1.0449     1.8912     6.4750 </r>
       <r>    -0.9755     3.0610     6.6875 </r>
       <r>    -0.9061     1.3627     6.7821 </r>
       <r>    -0.8367     3.1741     7.0030 </r>
       <r>    -0.7673     6.6468     7.4642 </r>
       <r>    -0.6979     8.8043     8.0753 </r>
       <r>    -0.6285     2.2435     8.2324 </r>
       <r>    -0.5591     7.4584     8.7500 </r>
       <r>    -0.4897     2.9296     8.9533 </r>
       <r>    -0.4203     5.3320     9.3247 </r>
       <r>    -0.3509     5.6770     9.7187 </r>
       <r>    -0.2815     1.9969     9.8573 </r>
       <r>    -0.2121     1.1272     9.9358 </r>
       <r>    -0.1427     3.0083    10.1446 </r>
       <r>    -0.0733     2.3305    10.3063 </r>
       <r>    -0.0039     3.4917    10.5486 </r>
       <r>     0.0655     0.6495    10.5938 </r>
       <r>     0.1349     0.0935    10.6002 </r>
       <r>     0.2043     1.7077    10.7187 </r>
       <r>     0.2737     0.0001    10.7188 </r>
       <r>     0.3431     1.6671    10.8345 </r>
       <r>     0.4125     2.6003    11.0149 </r>
       <r>     0.4819     3.3452    11.2472 </r>
       <r>     0.5513     8.6591    11.8481 </r>
       <r>     0.6207     5.7772    12.2490 </r>
       <r>     0.6901     6.7342    12.7199 </r>
       <r>     0.7595     6.5990    13.1779 </r>
       <r>     0.8289     7.2164    13.6822 </r>
       <r>     0.8983     0.0000    13.6875 </r>
       <r>     0.9677     3.3691    13.9213 </r>
       <r>     1.0371     1.9937    14.0597 </r>
       <r>     1.1065     0.0311    14.0647 </r>
       <r>     1.1759     7.0249    14.5522 </r>
       <r>     1.2453     3.8937    14.8244 </r>
       <r>     1.3147     4.9357    15.1671 </r>
       <r>     1.3841    10.4366    15.8921 </r>
       <r>     1.4535     6.5010    16.3456 </r>
       <r>     1.5229     5.9751    16.7602 </r>
       <r>     1.5923     2.5035    16.9342 </r>
       <r>     1.6617     1.5013    17.0419 </r>
       <r>     1.7311     3.1518    17.2620 </r>
       <r>     1.8005     1.7053    17.3808 </r>
       <r>     1.8699     2.1965    17.5332 </r>
       <r>     1.9393     4.0992    17.8218 </r>
       <r>     2.0087     4.7313    18.1550 </r>
       <r>     2.0781     2.2544    18.3127 </r>
       <r>     2.1475     2.6789    18.4986 </r>
       <r>     2.2169     0.0000    18.5000 </r>
       <r>     2.2863     2.7014    18.6875 </r>
       <r>     2.3557     4.2582    18.9830 </r>
       <r>     2.4251     4.2848    19.2812 </r>
       <r>     2.4945     2.7027    19.4688 </r>
       <r>     2.5639     7.0549    19.9585 </r>
       <r>     2.6333     6.4347    20.4068 </r>
       <r>     2.7027     5.1306    20.7639 </r>
       <r>     2.7721     5.2098    21.1292 </r>
       <r>     2.8415     4.7882    21.4620 </r>
       <r>     2.9109     3.6653    21.7178 </r>
       <r>     2.9803     2.9659    21.9247 </r>
       <r>     3.0497     4.8381    22.2604 </r>
       <r>     3.1191     4.6740    22.5867 </r>
       <r>     3.1885     4.0292    22.8684 </r>
       <r>     3.2579     3.9618    23.1435 </r>
       <r>     3.3273     3.1100    23.3594 </r>
       <r>     3.3967     2.4909    23.5322 </r>
       <r>     3.4661     1.7852    23.6561 </r>
       <r>     3.5355     1.3502    23.7500 </r>
       <r>     3.6049     1.7467    23.8712 </r>
       <r>     3.6742     5.4661    24.2510 </r>
       <r>     3.7436     4.6714    24.5756 </r>
       <r>     3.8130     8.3751    25.1569 </r>
       <r>     3.8824     3.0906    25.3750 </r>
       <r>     3.9518     3.3128    25.6049 </r>
       <r>     4.0212     6.4430    26.0546 </r>
       <r>     4.0906     1.1958    26.1376 </r>
       <r>     4.1600     1.7610    26.2599 </r>
       <r>     4.2294     5.3546    26.6315 </r>
       <r>     4.2988     0.3510    26.6562 </r>
       <r>     4.3682     1.0717    26.7306 </r>
       <r>     4.4376     2.0178    26.8707 </r>
       <r>     4.5070     0.0608    26.8750 </r>
       <r>     4.5764     0.0000    26.8750 </r>
       <r>     4.6458     0.0011    26.8751 </r>
       <r>     4.7152     0.8995    26.9375 </r>
       <r>     4.7846     0.0000    26.9375 </r>
       <r>     4.8540     0.9005    27.0000 </r>
       <r>     4.9234     0.0000    27.0000 </r>
       <r>     4.9928     0.0000    27.0000 </r>
       <r>     5.0622     0.0000    27.0000 </r>
       <r>     5.1316     0.0000    27.0000 </r>
       <r>     5.2010     0.0000    27.0000 </r>
       <r>     5.2704     0.0000    27.0000 </r>
       <r>     5.3398     0.0000    27.0000 </r>
       <r>     5.4092     0.0000    27.0000 </r>
       <r>     5.4786     0.0000    27.0000 </r>
       <r>     5.5480     0.0000    27.0000 </r>
       <r>     5.6174     0.0000    27.0000 </r>
       <r>     5.6868     0.0000    27.0000 </r>
       <r>     5.7562     0.0000    27.0000 </r>
       <r>     5.8256     0.0000    27.0000 </r>
       <r>     5.8950     0.0000    27.0000 </r>
       <r>     5.9644     0.0000    27.0000 </r>
       <r>     6.0338     0.0000    27.0000 </r>
       <r>     6.1032     0.0000    27.0000 </r>
       <r>     6.1726     0.4184    27.0290 </r>
       <r>     6.2420     2.2834    27.1875 </r>
       <r>     6.3114     0.3958    27.2150 </r>
       <r>     6.3808     2.6338    27.3978 </r>
       <r>     6.4502     1.9723    27.5382 </r>
       <r>     6.5196     4.6126    27.8584 </r>
       <r>     6.5890     4.7783    28.1922 </r>
       <r>     6.6584     4.8809    28.5310 </r>
       <r>     6.7278    12.2314    29.3814 </r>
       <r>     6.7972     3.9605    29.6563 </r>
       <r>     6.8666     3.8835    29.9258 </r>
       <r>     6.9360     8.1229    30.4898 </r>
       <r>     7.0054     6.3059    30.9276 </r>
       <r>     7.0748     8.6315    31.5271 </r>
       <r>     7.1442     4.3508    31.8291 </r>
       <r>     7.2136     7.8636    32.3748 </r>
       <r>     7.2830     6.5534    32.8314 </r>
       <r>     7.3524     5.4258    33.2133 </r>
       <r>     7.4218     3.9419    33.4884 </r>
       <r>     7.4912     7.3258    33.9968 </r>
       <r>     7.5606     3.7065    34.2571 </r>
       <r>     7.6300     0.7967    34.3127 </r>
       <r>     7.6994     2.9095    34.5146 </r>
       <r>     7.7688     3.1757    34.7350 </r>
       <r>     7.8382     7.3359    35.2470 </r>
       <r>     7.9076     2.4165    35.4177 </r>
       <r>     7.9770     2.5368    35.5938 </r>
       <r>     8.0464     0.9856    35.6622 </r>
       <r>     8.1158     2.9497    35.8669 </r>
       <r>     8.1852     1.4490    35.9675 </r>
       <r>     8.2546     1.7938    36.0940 </r>
       <r>     8.3240     1.4019    36.1912 </r>
       <r>     8.3933     2.1975    36.3437 </r>
       <r>     8.4627     0.6057    36.3858 </r>
       <r>     8.5321     3.4467    36.6250 </r>
       <r>     8.6015     1.9541    36.7606 </r>
       <r>     8.6709     2.4331    36.9295 </r>
       <r>     8.7403     3.9327    37.2024 </r>
       <r>     8.8097     1.1259    37.2806 </r>
       <r>     8.8791     2.2490    37.4373 </r>
       <r>     8.9485     2.6997    37.6249 </r>
       <r>     9.0179     0.8926    37.6869 </r>
       <r>     9.0873     1.8012    37.8125 </r>
       <r>     9.1567     0.9006    37.8750 </r>
       <r>     9.2261     0.8987    37.9374 </r>
       <r>     9.2955     0.7645    37.9906 </r>
       <r>     9.3649     0.1350    38.0000 </r>
       <r>     9.4343     0.0000    38.0000 </r>
       <r>     9.5037     0.0000    38.0000 </r>
       <r>     9.5731     0.0000    38.0000 </r>
       <r>     9.6425     0.0000    38.0000 </r>
       <r>     9.7119     0.0000    38.0000 </r>
       <r>     9.7813     0.0000    38.0000 </r>
       <r>     9.8507     0.0000    38.0000 </r>
       <r>     9.9201     0.0000    38.0000 </r>
       <r>     9.9895     0.0000    38.0000 </r>
       <r>    10.0589     0.0000    38.0000 </r>
       <r>    10.1283     0.0000    38.0000 </r>
       <r>    10.1977     0.0000    38.0000 </r>
       <r>    10.2671     0.0000    38.0000 </r>
      </set>
     </set>
    </array>
   </total>
  </dos>
 </calculation>
 <structure name="finalpos" >
  <crystal>
   <varray name="basis" >
    <v>       1.59215192      -2.75768801       0.00000000 </v>
    <v>       1.59215192       2.75768801       0.00000000 </v>
    <v>       0.00000000       0.00000000      19.44629514 </v>
   </varray>
   <i name="volume">    170.76407233 </i>
   <varray name="rec_basis" >
    <v>       0.31404038      -0.18131130       0.00000000 </v>
    <v>       0.31404038       0.18131130      -0.00000000 </v>
    <v>      -0.00000000       0.00000000       0.05142368 </v>
   </varray>
  </crystal>
  <varray name="positions" >
   <v>       0.66666667       0.33333333       0.33310854 </v>
   <v>       0.33333333       0.66666667       0.66644188 </v>
   <v>       0.00000000       0.00000000       0.99977521 </v>
   <v>       0.33333333       0.66666667       0.08002471 </v>
   <v>       0.00000000       0.00000000       0.25286775 </v>
   <v>       0.00000000       0.00000000       0.41335804 </v>
   <v>       0.66666667       0.33333333       0.58620108 </v>
   <v>       0.66666667       0.33333333       0.74669137 </v>
   <v>       0.33333333       0.66666667       0.91953442 </v>
  </varray>
 </structure>
</modeling>
