   9   9   1   0
  0.1897379E+02  0.3184304E-09  0.3184304E-09  0.1944630E-08  0.5000000E-15
   1.0000000000000000E-004
  CAR 
 unknown system                          
     10.36229805    -10.64487531  301      4.98796286      1.00000000
    -10.645  0.0000E+00  0.0000E+00  0.0000E+00  0.0000E+00
    -10.575  0.0000E+00  0.0000E+00  0.0000E+00  0.0000E+00
    -10.505  0.0000E+00  0.0000E+00  0.0000E+00  0.0000E+00
    -10.435  0.0000E+00  0.0000E+00  0.0000E+00  0.0000E+00
    -10.365  0.0000E+00  0.0000E+00  0.0000E+00  0.0000E+00
    -10.295  0.0000E+00  0.0000E+00  0.0000E+00  0.0000E+00
    -10.225  0.0000E+00  0.0000E+00  0.0000E+00  0.0000E+00
    -10.155  0.0000E+00  0.0000E+00  0.0000E+00  0.0000E+00
    -10.085  0.0000E+00  0.0000E+00  0.0000E+00  0.0000E+00
    -10.015  0.0000E+00  0.0000E+00  0.0000E+00  0.0000E+00
     -9.945  0.0000E+00  0.0000E+00  0.0000E+00  0.0000E+00
     -9.875  0.0000E+00  0.0000E+00  0.0000E+00  0.0000E+00
     -9.805  0.0000E+00  0.0000E+00  0.0000E+00  0.0000E+00
     -9.735  0.4148E-10  0.4151E-10  0.2905E-11  0.2906E-11
     -9.665  0.8561E+00  0.8561E+00  0.5995E-01  0.5995E-01
     -9.595  0.9029E+00  0.9030E+00  0.1235E+00  0.1235E+00
     -9.524  0.2899E+01  0.2899E+01  0.3265E+00  0.3265E+00
     -9.454  0.1250E+01  0.1250E+01  0.4143E+00  0.4143E+00
     -9.384  0.1389E+01  0.1389E+01  0.5116E+00  0.5116E+00
     -9.314  0.8345E+00  0.8345E+00  0.5715E+00  0.5715E+00
     -9.244  0.8529E+00  0.8529E+00  0.6313E+00  0.6313E+00
     -9.174  0.8999E+00  0.8999E+00  0.6943E+00  0.6943E+00
     -9.104  0.8554E+00  0.8554E+00  0.7542E+00  0.7542E+00
     -9.034  0.7780E+00  0.7780E+00  0.8087E+00  0.8087E+00
     -8.964  0.4124E+00  0.4124E+00  0.8392E+00  0.8392E+00
     -8.894  0.5946E+00  0.5946E+00  0.8808E+00  0.8808E+00
     -8.824  0.7527E+00  0.7527E+00  0.9335E+00  0.9335E+00
     -8.754  0.8040E+00  0.8040E+00  0.9898E+00  0.9898E+00
     -8.684  0.4861E+00  0.4861E+00  0.1025E+01  0.1025E+01
     -8.614  0.7379E+00  0.7379E+00  0.1076E+01  0.1076E+01
     -8.544  0.7939E+00  0.7939E+00  0.1132E+01  0.1132E+01
     -8.474  0.5441E+00  0.5441E+00  0.1170E+01  0.1170E+01
     -8.404  0.3777E+01  0.3777E+01  0.1436E+01  0.1436E+01
     -8.334  0.2375E+01  0.2375E+01  0.1602E+01  0.1602E+01
     -8.264  0.3273E+01  0.3273E+01  0.1832E+01  0.1832E+01
     -8.194  0.2602E+01  0.2602E+01  0.2015E+01  0.2015E+01
     -8.124  0.2296E+01  0.2296E+01  0.2177E+01  0.2177E+01
     -8.054  0.2367E+01  0.2367E+01  0.2343E+01  0.2343E+01
     -7.984  0.2265E+01  0.2265E+01  0.2501E+01  0.2501E+01
     -7.914  0.2306E+01  0.2306E+01  0.2663E+01  0.2663E+01
     -7.844  0.2677E+01  0.2677E+01  0.2851E+01  0.2851E+01
     -7.774  0.6828E+01  0.6828E+01  0.3330E+01  0.3330E+01
     -7.704  0.5142E+01  0.5142E+01  0.3692E+01  0.3692E+01
     -7.634  0.4899E+01  0.4899E+01  0.4036E+01  0.4036E+01
     -7.564  0.9343E+01  0.9343E+01  0.4692E+01  0.4692E+01
     -7.494  0.8642E+01  0.8642E+01  0.5299E+01  0.5299E+01
     -7.424  0.5629E+01  0.5629E+01  0.5695E+01  0.5695E+01
     -7.354  0.4331E+01  0.4331E+01  0.6000E+01  0.6000E+01
     -7.284  0.0000E+00  0.0000E+00  0.6000E+01  0.6000E+01
     -7.214  0.0000E+00  0.0000E+00  0.6000E+01  0.6000E+01
     -7.144  0.0000E+00  0.0000E+00  0.6000E+01  0.6000E+01
     -7.074  0.0000E+00  0.0000E+00  0.6000E+01  0.6000E+01
     -7.004  0.0000E+00  0.0000E+00  0.6000E+01  0.6000E+01
     -6.934  0.0000E+00  0.0000E+00  0.6000E+01  0.6000E+01
     -6.864  0.0000E+00  0.0000E+00  0.6000E+01  0.6000E+01
     -6.794  0.0000E+00  0.0000E+00  0.6000E+01  0.6000E+01
     -6.724  0.0000E+00  0.0000E+00  0.6000E+01  0.6000E+01
     -6.654  0.0000E+00  0.0000E+00  0.6000E+01  0.6000E+01
     -6.583  0.0000E+00  0.0000E+00  0.6000E+01  0.6000E+01
     -6.513  0.0000E+00  0.0000E+00  0.6000E+01  0.6000E+01
     -6.443  0.0000E+00  0.0000E+00  0.6000E+01  0.6000E+01
     -6.373  0.0000E+00  0.0000E+00  0.6000E+01  0.6000E+01
     -6.303  0.0000E+00  0.0000E+00  0.6000E+01  0.6000E+01
     -6.233  0.0000E+00  0.0000E+00  0.6000E+01  0.6000E+01
     -6.163  0.0000E+00  0.0000E+00  0.6000E+01  0.6000E+01
     -6.093  0.0000E+00  0.0000E+00  0.6000E+01  0.6000E+01
     -6.023  0.0000E+00  0.0000E+00  0.6000E+01  0.6000E+01
     -5.953  0.0000E+00  0.0000E+00  0.6000E+01  0.6000E+01
     -5.883  0.0000E+00  0.0000E+00  0.6000E+01  0.6000E+01
     -5.813  0.0000E+00  0.0000E+00  0.6000E+01  0.6000E+01
     -5.743  0.0000E+00  0.0000E+00  0.6000E+01  0.6000E+01
     -5.673  0.0000E+00  0.0000E+00  0.6000E+01  0.6000E+01
     -5.603  0.0000E+00  0.0000E+00  0.6000E+01  0.6000E+01
     -5.533  0.0000E+00  0.0000E+00  0.6000E+01  0.6000E+01
     -5.463  0.0000E+00  0.0000E+00  0.6000E+01  0.6000E+01
     -5.393  0.0000E+00  0.0000E+00  0.6000E+01  0.6000E+01
     -5.323  0.0000E+00  0.0000E+00  0.6000E+01  0.6000E+01
     -5.253  0.0000E+00  0.0000E+00  0.6000E+01  0.6000E+01
     -5.183  0.0000E+00  0.0000E+00  0.6000E+01  0.6000E+01
     -5.113  0.0000E+00  0.0000E+00  0.6000E+01  0.6000E+01
     -5.043  0.0000E+00  0.0000E+00  0.6000E+01  0.6000E+01
     -4.973  0.0000E+00  0.0000E+00  0.6000E+01  0.6000E+01
     -4.903  0.0000E+00  0.0000E+00  0.6000E+01  0.6000E+01
     -4.833  0.0000E+00  0.0000E+00  0.6000E+01  0.6000E+01
     -4.763  0.0000E+00  0.0000E+00  0.6000E+01  0.6000E+01
     -4.693  0.0000E+00  0.0000E+00  0.6000E+01  0.6000E+01
     -4.623  0.0000E+00  0.0000E+00  0.6000E+01  0.6000E+01
     -4.553  0.0000E+00  0.0000E+00  0.6000E+01  0.6000E+01
     -4.483  0.0000E+00  0.0000E+00  0.6000E+01  0.6000E+01
     -4.413  0.0000E+00  0.0000E+00  0.6000E+01  0.6000E+01
     -4.343  0.0000E+00  0.0000E+00  0.6000E+01  0.6000E+01
     -4.273  0.0000E+00  0.0000E+00  0.6000E+01  0.6000E+01
     -4.203  0.0000E+00  0.0000E+00  0.6000E+01  0.6000E+01
     -4.133  0.0000E+00  0.0000E+00  0.6000E+01  0.6000E+01
     -4.063  0.0000E+00  0.0000E+00  0.6000E+01  0.6000E+01
     -3.993  0.0000E+00  0.0000E+00  0.6000E+01  0.6000E+01
     -3.923  0.0000E+00  0.0000E+00  0.6000E+01  0.6000E+01
     -3.853  0.0000E+00  0.0000E+00  0.6000E+01  0.6000E+01
     -3.783  0.0000E+00  0.0000E+00  0.6000E+01  0.6000E+01
     -3.713  0.0000E+00  0.0000E+00  0.6000E+01  0.6000E+01
     -3.642  0.0000E+00  0.0000E+00  0.6000E+01  0.6000E+01
     -3.572  0.0000E+00  0.0000E+00  0.6000E+01  0.6000E+01
     -3.502  0.0000E+00  0.0000E+00  0.6000E+01  0.6000E+01
     -3.432  0.0000E+00  0.0000E+00  0.6000E+01  0.6000E+01
     -3.362  0.0000E+00  0.0000E+00  0.6000E+01  0.6000E+01
     -3.292  0.0000E+00  0.0000E+00  0.6000E+01  0.6000E+01
     -3.222  0.0000E+00  0.0000E+00  0.6000E+01  0.6000E+01
     -3.152  0.0000E+00  0.0000E+00  0.6000E+01  0.6000E+01
     -3.082  0.0000E+00  0.0000E+00  0.6000E+01  0.6000E+01
     -3.012  0.0000E+00  0.0000E+00  0.6000E+01  0.6000E+01
     -2.942  0.0000E+00  0.0000E+00  0.6000E+01  0.6000E+01
     -2.872  0.0000E+00  0.0000E+00  0.6000E+01  0.6000E+01
     -2.802  0.0000E+00  0.0000E+00  0.6000E+01  0.6000E+01
     -2.732  0.0000E+00  0.0000E+00  0.6000E+01  0.6000E+01
     -2.662  0.0000E+00  0.0000E+00  0.6000E+01  0.6000E+01
     -2.592  0.0000E+00  0.0000E+00  0.6000E+01  0.6000E+01
     -2.522  0.0000E+00  0.0000E+00  0.6000E+01  0.6000E+01
     -2.452  0.0000E+00  0.0000E+00  0.6000E+01  0.6000E+01
     -2.382  0.0000E+00  0.0000E+00  0.6000E+01  0.6000E+01
     -2.312  0.0000E+00  0.0000E+00  0.6000E+01  0.6000E+01
     -2.242  0.0000E+00  0.0000E+00  0.6000E+01  0.6000E+01
     -2.172  0.0000E+00  0.0000E+00  0.6000E+01  0.6000E+01
     -2.102  0.0000E+00  0.0000E+00  0.6000E+01  0.6000E+01
     -2.032  0.0000E+00  0.0000E+00  0.6000E+01  0.6000E+01
     -1.962  0.0000E+00  0.0000E+00  0.6000E+01  0.6000E+01
     -1.892  0.0000E+00  0.0000E+00  0.6000E+01  0.6000E+01
     -1.822  0.0000E+00  0.0000E+00  0.6000E+01  0.6000E+01
     -1.752  0.0000E+00  0.0000E+00  0.6000E+01  0.6000E+01
     -1.682  0.0000E+00  0.0000E+00  0.6000E+01  0.6000E+01
     -1.612  0.0000E+00  0.0000E+00  0.6000E+01  0.6000E+01
     -1.542  0.0000E+00  0.0000E+00  0.6000E+01  0.6000E+01
     -1.472  0.4751E-09  0.4753E-09  0.6000E+01  0.6000E+01
     -1.402  0.8313E+00  0.8313E+00  0.6058E+01  0.6058E+01
     -1.332  0.6801E+00  0.6801E+00  0.6106E+01  0.6106E+01
     -1.262  0.3459E+01  0.3459E+01  0.6348E+01  0.6348E+01
     -1.192  0.3136E+01  0.3136E+01  0.6568E+01  0.6568E+01
     -1.122  0.1905E+01  0.1905E+01  0.6702E+01  0.6702E+01
     -1.052  0.1643E+01  0.1643E+01  0.6817E+01  0.6817E+01
     -0.982  0.1460E+01  0.1460E+01  0.6920E+01  0.6920E+01
     -0.912  0.4603E+01  0.4603E+01  0.7242E+01  0.7242E+01
     -0.842  0.6357E+01  0.6357E+01  0.7689E+01  0.7689E+01
     -0.772  0.3880E+01  0.3880E+01  0.7962E+01  0.7962E+01
     -0.701  0.4159E+01  0.4159E+01  0.8255E+01  0.8255E+01
     -0.631  0.4244E+01  0.4244E+01  0.8552E+01  0.8552E+01
     -0.561  0.4611E+01  0.4611E+01  0.8877E+01  0.8877E+01
     -0.491  0.3830E+01  0.3830E+01  0.9145E+01  0.9145E+01
     -0.421  0.4630E+01  0.4630E+01  0.9470E+01  0.9470E+01
     -0.351  0.5729E+01  0.5729E+01  0.9871E+01  0.9871E+01
     -0.281  0.4082E+01  0.4082E+01  0.1016E+02  0.1016E+02
     -0.211  0.1812E+01  0.1812E+01  0.1029E+02  0.1029E+02
     -0.141  0.1726E+01  0.1726E+01  0.1041E+02  0.1041E+02
     -0.071  0.2326E+01  0.2326E+01  0.1057E+02  0.1057E+02
     -0.001  0.3588E+00  0.3588E+00  0.1060E+02  0.1060E+02
      0.069  0.7115E+00  0.7115E+00  0.1065E+02  0.1065E+02
      0.139  0.2933E+00  0.2933E+00  0.1067E+02  0.1067E+02
      0.209  0.8029E+00  0.8029E+00  0.1072E+02  0.1072E+02
      0.279  0.3987E+00  0.3988E+00  0.1075E+02  0.1075E+02
      0.349  0.5165E+00  0.5165E+00  0.1079E+02  0.1079E+02
      0.419  0.6326E+01  0.6326E+01  0.1123E+02  0.1123E+02
      0.489  0.5266E+01  0.5266E+01  0.1160E+02  0.1160E+02
      0.559  0.6438E+01  0.6438E+01  0.1205E+02  0.1205E+02
      0.629  0.4067E+01  0.4067E+01  0.1234E+02  0.1234E+02
      0.699  0.4129E+01  0.4129E+01  0.1263E+02  0.1263E+02
      0.769  0.2987E+01  0.2987E+01  0.1284E+02  0.1284E+02
      0.839  0.3962E+01  0.3962E+01  0.1312E+02  0.1312E+02
      0.909  0.1688E+01  0.1688E+01  0.1324E+02  0.1324E+02
      0.979  0.4367E+01  0.4367E+01  0.1354E+02  0.1354E+02
      1.049  0.2332E+01  0.2332E+01  0.1371E+02  0.1371E+02
      1.119  0.1964E+01  0.1964E+01  0.1385E+02  0.1385E+02
      1.189  0.2961E+01  0.2961E+01  0.1405E+02  0.1405E+02
      1.259  0.3083E+01  0.3083E+01  0.1427E+02  0.1427E+02
      1.329  0.7196E+01  0.7196E+01  0.1478E+02  0.1478E+02
      1.399  0.9834E+01  0.9834E+01  0.1547E+02  0.1547E+02
      1.469  0.3557E+01  0.3557E+01  0.1572E+02  0.1572E+02
      1.539  0.6238E+01  0.6238E+01  0.1615E+02  0.1615E+02
      1.609  0.4523E+01  0.4523E+01  0.1647E+02  0.1647E+02
      1.679  0.2869E+01  0.2869E+01  0.1667E+02  0.1667E+02
      1.749  0.2276E+01  0.2276E+01  0.1683E+02  0.1683E+02
      1.819  0.2859E+01  0.2859E+01  0.1703E+02  0.1703E+02
      1.889  0.2359E+01  0.2359E+01  0.1720E+02  0.1720E+02
      1.959  0.7006E+01  0.7006E+01  0.1769E+02  0.1769E+02
      2.029  0.3304E+01  0.3304E+01  0.1793E+02  0.1793E+02
      2.099  0.2638E+01  0.2638E+01  0.1811E+02  0.1811E+02
      2.170  0.3009E+01  0.3009E+01  0.1832E+02  0.1832E+02
      2.240  0.2240E+01  0.2240E+01  0.1848E+02  0.1848E+02
      2.310  0.3373E+01  0.3373E+01  0.1872E+02  0.1872E+02
      2.380  0.5578E+01  0.5578E+01  0.1911E+02  0.1911E+02
      2.450  0.6330E+01  0.6330E+01  0.1955E+02  0.1955E+02
      2.520  0.6365E+01  0.6365E+01  0.2000E+02  0.2000E+02
      2.590  0.4725E+01  0.4725E+01  0.2034E+02  0.2034E+02
      2.660  0.3267E+01  0.3267E+01  0.2057E+02  0.2057E+02
      2.730  0.7785E+01  0.7785E+01  0.2111E+02  0.2111E+02
      2.800  0.2977E+01  0.2977E+01  0.2132E+02  0.2132E+02
      2.870  0.2551E+01  0.2551E+01  0.2150E+02  0.2150E+02
      2.940  0.3091E+01  0.3091E+01  0.2172E+02  0.2172E+02
      3.010  0.4554E+01  0.4554E+01  0.2204E+02  0.2204E+02
      3.080  0.4460E+01  0.4460E+01  0.2235E+02  0.2235E+02
      3.150  0.2836E+01  0.2836E+01  0.2255E+02  0.2255E+02
      3.220  0.3205E+01  0.3205E+01  0.2278E+02  0.2278E+02
      3.290  0.3069E+01  0.3069E+01  0.2299E+02  0.2299E+02
      3.360  0.2430E+01  0.2430E+01  0.2316E+02  0.2316E+02
      3.430  0.3666E+01  0.3666E+01  0.2342E+02  0.2342E+02
      3.500  0.2094E+01  0.2094E+01  0.2357E+02  0.2357E+02
      3.570  0.2343E+01  0.2343E+01  0.2373E+02  0.2373E+02
      3.640  0.1842E+01  0.1842E+01  0.2386E+02  0.2386E+02
      3.710  0.2366E+01  0.2366E+01  0.2403E+02  0.2403E+02
      3.780  0.3474E+01  0.3474E+01  0.2427E+02  0.2427E+02
      3.850  0.3398E+01  0.3398E+01  0.2451E+02  0.2451E+02
      3.920  0.4379E+01  0.4379E+01  0.2482E+02  0.2482E+02
      3.990  0.3512E+01  0.3512E+01  0.2506E+02  0.2506E+02
      4.060  0.2251E+01  0.2251E+01  0.2522E+02  0.2522E+02
      4.130  0.2867E+01  0.2867E+01  0.2542E+02  0.2542E+02
      4.200  0.4738E+01  0.4738E+01  0.2576E+02  0.2576E+02
      4.270  0.2149E+01  0.2149E+01  0.2591E+02  0.2591E+02
      4.340  0.2116E+01  0.2116E+01  0.2606E+02  0.2606E+02
      4.410  0.2022E+01  0.2022E+01  0.2620E+02  0.2620E+02
      4.480  0.1925E+01  0.1925E+01  0.2633E+02  0.2633E+02
      4.550  0.3546E+01  0.3546E+01  0.2658E+02  0.2658E+02
      4.620  0.1279E+01  0.1279E+01  0.2668E+02  0.2668E+02
      4.690  0.5382E+00  0.5382E+00  0.2671E+02  0.2671E+02
      4.760  0.5420E+00  0.5420E+00  0.2675E+02  0.2675E+02
      4.830  0.6001E+00  0.6001E+00  0.2679E+02  0.2679E+02
      4.900  0.1201E+01  0.1201E+01  0.2688E+02  0.2688E+02
      4.970  0.1727E+01  0.1727E+01  0.2700E+02  0.2700E+02
      5.040  0.0000E+00  0.0000E+00  0.2700E+02  0.2700E+02
      5.111  0.0000E+00  0.0000E+00  0.2700E+02  0.2700E+02
      5.181  0.0000E+00  0.0000E+00  0.2700E+02  0.2700E+02
      5.251  0.0000E+00  0.0000E+00  0.2700E+02  0.2700E+02
      5.321  0.0000E+00  0.0000E+00  0.2700E+02  0.2700E+02
      5.391  0.0000E+00  0.0000E+00  0.2700E+02  0.2700E+02
      5.461  0.0000E+00  0.0000E+00  0.2700E+02  0.2700E+02
      5.531  0.0000E+00  0.0000E+00  0.2700E+02  0.2700E+02
      5.601  0.0000E+00  0.0000E+00  0.2700E+02  0.2700E+02
      5.671  0.0000E+00  0.0000E+00  0.2700E+02  0.2700E+02
      5.741  0.0000E+00  0.0000E+00  0.2700E+02  0.2700E+02
      5.811  0.0000E+00  0.0000E+00  0.2700E+02  0.2700E+02
      5.881  0.0000E+00  0.0000E+00  0.2700E+02  0.2700E+02
      5.951  0.0000E+00  0.0000E+00  0.2700E+02  0.2700E+02
      6.021  0.0000E+00  0.0000E+00  0.2700E+02  0.2700E+02
      6.091  0.0000E+00  0.0000E+00  0.2700E+02  0.2700E+02
      6.161  0.2663E-10  0.2661E-10  0.2700E+02  0.2700E+02
      6.231  0.7521E+00  0.7520E+00  0.2705E+02  0.2705E+02
      6.301  0.3592E+01  0.3592E+01  0.2730E+02  0.2730E+02
      6.371  0.1749E+01  0.1749E+01  0.2743E+02  0.2743E+02
      6.441  0.1801E+01  0.1801E+01  0.2755E+02  0.2755E+02
      6.511  0.2246E+01  0.2246E+01  0.2771E+02  0.2771E+02
      6.581  0.1845E+01  0.1845E+01  0.2784E+02  0.2784E+02
      6.651  0.2960E+01  0.2960E+01  0.2805E+02  0.2805E+02
      6.721  0.2874E+01  0.2874E+01  0.2825E+02  0.2825E+02
      6.791  0.7013E+01  0.7013E+01  0.2874E+02  0.2874E+02
      6.861  0.9384E+01  0.9384E+01  0.2940E+02  0.2940E+02
      6.931  0.3601E+01  0.3601E+01  0.2965E+02  0.2965E+02
      7.001  0.4944E+01  0.4944E+01  0.3000E+02  0.3000E+02
      7.071  0.3508E+01  0.3510E+01  0.3025E+02  0.3025E+02
      7.141  0.4451E+01  0.4425E+01  0.3056E+02  0.3056E+02
      7.211  0.5930E+01  0.5982E+01  0.3098E+02  0.3098E+02
      7.281  0.1111E+02  0.1099E+02  0.3175E+02  0.3175E+02
      7.351  0.1028E+02  0.1043E+02  0.3248E+02  0.3248E+02
      7.421  0.6123E+01  0.6189E+01  0.3291E+02  0.3292E+02
      7.491  0.7287E+01  0.7014E+01  0.3342E+02  0.3341E+02
      7.561  0.1013E+02  0.1027E+02  0.3413E+02  0.3413E+02
      7.631  0.4292E+01  0.4321E+01  0.3443E+02  0.3444E+02
      7.701  0.3017E+01  0.3006E+01  0.3465E+02  0.3465E+02
      7.771  0.1819E+01  0.1839E+01  0.3478E+02  0.3478E+02
      7.841  0.1785E+01  0.1740E+01  0.3490E+02  0.3490E+02
      7.911  0.2263E+01  0.2424E+01  0.3506E+02  0.3507E+02
      7.981  0.2870E+01  0.2739E+01  0.3526E+02  0.3526E+02
      8.052  0.2692E+01  0.2697E+01  0.3545E+02  0.3545E+02
      8.122  0.4494E+01  0.4575E+01  0.3577E+02  0.3577E+02
      8.192  0.1915E+01  0.1971E+01  0.3590E+02  0.3591E+02
      8.262  0.1578E+01  0.1586E+01  0.3602E+02  0.3603E+02
      8.332  0.2733E+01  0.2442E+01  0.3621E+02  0.3620E+02
      8.402  0.1273E+01  0.1460E+01  0.3630E+02  0.3630E+02
      8.472  0.2104E+01  0.2094E+01  0.3644E+02  0.3645E+02
      8.542  0.2755E+01  0.2895E+01  0.3664E+02  0.3665E+02
      8.612  0.2205E+01  0.2236E+01  0.3679E+02  0.3681E+02
      8.682  0.1563E+01  0.1310E+01  0.3690E+02  0.3690E+02
      8.752  0.3912E+01  0.3924E+01  0.3718E+02  0.3718E+02
      8.822  0.1319E+01  0.9792E+00  0.3727E+02  0.3725E+02
      8.892  0.1108E+01  0.1558E+01  0.3735E+02  0.3735E+02
      8.962  0.9908E+00  0.9621E+00  0.3742E+02  0.3742E+02
      9.032  0.1028E+01  0.9441E+00  0.3749E+02  0.3749E+02
      9.102  0.9252E+00  0.6846E+00  0.3755E+02  0.3754E+02
      9.172  0.8936E+00  0.1250E+01  0.3762E+02  0.3762E+02
      9.242  0.1130E+01  0.7103E+00  0.3770E+02  0.3767E+02
      9.312  0.1014E+01  0.1235E+01  0.3777E+02  0.3776E+02
      9.382  0.1694E+01  0.1676E+01  0.3789E+02  0.3788E+02
      9.452  0.1628E+01  0.1729E+01  0.3800E+02  0.3800E+02
      9.522  0.0000E+00  0.0000E+00  0.3800E+02  0.3800E+02
      9.592  0.0000E+00  0.0000E+00  0.3800E+02  0.3800E+02
      9.662  0.0000E+00  0.0000E+00  0.3800E+02  0.3800E+02
      9.732  0.0000E+00  0.0000E+00  0.3800E+02  0.3800E+02
      9.802  0.0000E+00  0.0000E+00  0.3800E+02  0.3800E+02
      9.872  0.0000E+00  0.0000E+00  0.3800E+02  0.3800E+02
      9.942  0.0000E+00  0.0000E+00  0.3800E+02  0.3800E+02
     10.012  0.0000E+00  0.0000E+00  0.3800E+02  0.3800E+02
     10.082  0.0000E+00  0.0000E+00  0.3800E+02  0.3800E+02
     10.152  0.0000E+00  0.0000E+00  0.3800E+02  0.3800E+02
     10.222  0.0000E+00  0.0000E+00  0.3800E+02  0.3800E+02
     10.292  0.0000E+00  0.0000E+00  0.3800E+02  0.3800E+02
     10.362  0.0000E+00  0.0000E+00  0.3800E+02  0.3800E+02
     10.36229805    -10.64487531  301      4.98796286      1.00000000
    -10.645  0.0000E+00  0.0000E+00  0.0000E+00  0.0000E+00  0.0000E+00  0.0000E+00  0.0000E+00  0.0000E+00  0.0000E+00  0.0000E+00  0.0000E+00  0.0000E+00  0.0000E+00  0.0000E+00  0.0000E+00  0.0000E+00  0.0000E+00  0.0000E+00
    -10.575  0.0000E+00  0.0000E+00  0.0000E+00  0.0000E+00  0.0000E+00  0.0000E+00  0.0000E+00  0.0000E+00  0.0000E+00  0.0000E+00  0.0000E+00  0.0000E+00  0.0000E+00  0.0000E+00  0.0000E+00  0.0000E+00  0.0000E+00  0.0000E+00
    -10.505  0.0000E+00  0.0000E+00  0.0000E+00  0.0000E+00  0.0000E+00  0.0000E+00  0.0000E+00  0.0000E+00  0.0000E+00  0.0000E+00  0.0000E+00  0.0000E+00  0.0000E+00  0.0000E+00  0.0000E+00  0.0000E+00  0.0000E+00  0.0000E+00
    -10.435  0.0000E+00  0.0000E+00  0.0000E+00  0.0000E+00  0.0000E+00  0.0000E+00  0.0000E+00  0.0000E+00  0.0000E+00  0.0000E+00  0.0000E+00  0.0000E+00  0.0000E+00  0.0000E+00  0.0000E+00  0.0000E+00  0.0000E+00  0.0000E+00
    -10.365  0.0000E+00  0.0000E+00  0.0000E+00  0.0000E+00  0.0000E+00  0.0000E+00  0.0000E+00  0.0000E+00  0.0000E+00  0.0000E+00  0.0000E+00  0.0000E+00  0.0000E+00  0.0000E+00  0.0000E+00  0.0000E+00  0.0000E+00  0.0000E+00
    -10.295  0.0000E+00  0.0000E+00  0.0000E+00  0.0000E+00  0.0000E+00  0.0000E+00  0.0000E+00  0.0000E+00  0.0000E+00  0.0000E+00  0.0000E+00  0.0000E+00  0.0000E+00  0.0000E+00  0.0000E+00  0.0000E+00  0.0000E+00  0.0000E+00
    -10.225  0.0000E+00  0.0000E+00  0.0000E+00  0.0000E+00  0.0000E+00  0.0000E+00  0.0000E+00  0.0000E+00  0.0000E+00  0.0000E+00  0.0000E+00  0.0000E+00  0.0000E+00  0.0000E+00  0.0000E+00  0.0000E+00  0.0000E+00  0.0000E+00
    -10.155  0.0000E+00  0.0000E+00  0.0000E+00  0.0000E+00  0.0000E+00  0.0000E+00  0.0000E+00  0.0000E+00  0.0000E+00  0.0000E+00  0.0000E+00  0.0000E+00  0.0000E+00  0.0000E+00  0.0000E+00  0.0000E+00  0.0000E+00  0.0000E+00
    -10.085  0.0000E+00  0.0000E+00  0.0000E+00  0.0000E+00  0.0000E+00  0.0000E+00  0.0000E+00  0.0000E+00  0.0000E+00  0.0000E+00  0.0000E+00  0.0000E+00  0.0000E+00  0.0000E+00  0.0000E+00  0.0000E+00  0.0000E+00  0.0000E+00
    -10.015  0.0000E+00  0.0000E+00  0.0000E+00  0.0000E+00  0.0000E+00  0.0000E+00  0.0000E+00  0.0000E+00  0.0000E+00  0.0000E+00  0.0000E+00  0.0000E+00  0.0000E+00  0.0000E+00  0.0000E+00  0.0000E+00  0.0000E+00  0.0000E+00
     -9.945  0.0000E+00  0.0000E+00  0.0000E+00  0.0000E+00  0.0000E+00  0.0000E+00  0.0000E+00  0.0000E+00  0.0000E+00  0.0000E+00  0.0000E+00  0.0000E+00  0.0000E+00  0.0000E+00  0.0000E+00  0.0000E+00  0.0000E+00  0.0000E+00
     -9.875  0.0000E+00  0.0000E+00  0.0000E+00  0.0000E+00  0.0000E+00  0.0000E+00  0.0000E+00  0.0000E+00  0.0000E+00  0.0000E+00  0.0000E+00  0.0000E+00  0.0000E+00  0.0000E+00  0.0000E+00  0.0000E+00  0.0000E+00  0.0000E+00
     -9.805  0.0000E+00  0.0000E+00  0.0000E+00  0.0000E+00  0.0000E+00  0.0000E+00  0.0000E+00  0.0000E+00  0.0000E+00  0.0000E+00  0.0000E+00  0.0000E+00  0.0000E+00  0.0000E+00  0.0000E+00  0.0000E+00  0.0000E+00  0.0000E+00
     -9.735  0.1755E-11  0.1756E-11  0.2430E-16  0.2431E-16  0.5475E-19  0.5488E-19  0.2430E-16  0.2431E-16  0.9054E-17  0.9058E-17  0.6133E-24  0.6242E-24  0.5021E-14  0.5023E-14  0.6133E-24  0.6242E-24  0.9054E-17  0.9058E-17
     -9.665  0.3611E-01  0.3611E-01  0.3036E-04  0.3037E-04  0.1137E-08  0.1139E-08  0.3036E-04  0.3037E-04  0.1140E-04  0.1140E-04  0.1002E-11  0.1001E-11  0.1049E-03  0.1049E-03  0.1002E-11  0.1001E-11  0.1140E-04  0.1140E-04
     -9.595  0.3793E-01  0.3794E-01  0.1755E-03  0.1755E-03  0.1538E-04  0.1538E-04  0.1755E-03  0.1755E-03  0.6756E-04  0.6756E-04  0.8529E-08  0.8531E-08  0.1111E-03  0.1111E-03  0.8529E-08  0.8531E-08  0.6756E-04  0.6756E-04
     -9.524  0.1242E+00  0.1242E+00  0.5754E-03  0.5754E-03  0.1539E-03  0.1539E-03  0.5754E-03  0.5754E-03  0.2260E-03  0.2260E-03  0.1408E-05  0.1408E-05  0.3162E-03  0.3162E-03  0.1408E-05  0.1408E-05  0.2260E-03  0.2260E-03
     -9.454  0.5167E-01  0.5167E-01  0.7304E-03  0.7304E-03  0.6307E-04  0.6307E-04  0.7304E-03  0.7304E-03  0.2951E-03  0.2951E-03  0.2577E-05  0.2577E-05  0.1583E-03  0.1583E-03  0.2577E-05  0.2577E-05  0.2951E-03  0.2951E-03
     -9.384  0.5540E-01  0.5540E-01  0.1332E-02  0.1332E-02  0.6839E-04  0.6839E-04  0.1332E-02  0.1332E-02  0.5598E-03  0.5598E-03  0.5234E-05  0.5234E-05  0.1992E-03  0.1992E-03  0.5234E-05  0.5234E-05  0.5598E-03  0.5598E-03
     -9.314  0.3193E-01  0.3193E-01  0.1127E-02  0.1127E-02  0.3734E-04  0.3734E-04  0.1127E-02  0.1127E-02  0.4944E-03  0.4944E-03  0.4319E-05  0.4319E-05  0.1356E-03  0.1356E-03  0.4319E-05  0.4319E-05  0.4944E-03  0.4944E-03
     -9.244  0.3168E-01  0.3168E-01  0.1407E-02  0.1407E-02  0.4049E-04  0.4049E-04  0.1407E-02  0.1407E-02  0.6384E-03  0.6384E-03  0.6096E-05  0.6096E-05  0.1487E-03  0.1487E-03  0.6096E-05  0.6096E-05  0.6384E-03  0.6384E-03
     -9.174  0.3226E-01  0.3226E-01  0.1785E-02  0.1785E-02  0.4442E-04  0.4442E-04  0.1785E-02  0.1785E-02  0.8415E-03  0.8415E-03  0.8617E-05  0.8617E-05  0.1689E-03  0.1689E-03  0.8617E-05  0.8617E-05  0.8415E-03  0.8415E-03
     -9.104  0.2939E-01  0.2939E-01  0.2010E-02  0.2010E-02  0.4197E-04  0.4197E-04  0.2010E-02  0.2010E-02  0.9870E-03  0.9870E-03  0.1028E-04  0.1028E-04  0.1735E-03  0.1735E-03  0.1028E-04  0.1028E-04  0.9870E-03  0.9870E-03
     -9.034  0.2552E-01  0.2552E-01  0.2119E-02  0.2119E-02  0.3719E-04  0.3719E-04  0.2119E-02  0.2119E-02  0.1085E-02  0.1085E-02  0.1123E-04  0.1123E-04  0.1695E-03  0.1695E-03  0.1123E-04  0.1123E-04  0.1085E-02  0.1085E-02
     -8.964  0.1300E-01  0.1300E-01  0.1248E-02  0.1248E-02  0.1974E-04  0.1974E-04  0.1248E-02  0.1248E-02  0.6665E-03  0.6665E-03  0.6948E-05  0.6948E-05  0.9417E-04  0.9417E-04  0.6948E-05  0.6948E-05  0.6665E-03  0.6665E-03
     -8.894  0.1843E-01  0.1843E-01  0.1886E-02  0.1886E-02  0.3121E-04  0.3121E-04  0.1886E-02  0.1886E-02  0.1015E-02  0.1015E-02  0.1199E-04  0.1199E-04  0.1377E-03  0.1377E-03  0.1199E-04  0.1199E-04  0.1015E-02  0.1015E-02
     -8.824  0.2220E-01  0.2220E-01  0.2653E-02  0.2653E-02  0.3961E-04  0.3961E-04  0.2653E-02  0.2653E-02  0.1483E-02  0.1483E-02  0.1823E-04  0.1823E-04  0.1825E-03  0.1825E-03  0.1823E-04  0.1823E-04  0.1483E-02  0.1483E-02
     -8.754  0.2231E-01  0.2231E-01  0.3150E-02  0.3150E-02  0.4126E-04  0.4126E-04  0.3150E-02  0.3150E-02  0.1842E-02  0.1842E-02  0.2283E-04  0.2283E-04  0.2035E-03  0.2035E-03  0.2283E-04  0.2283E-04  0.1842E-02  0.1842E-02
     -8.684  0.1285E-01  0.1285E-01  0.2049E-02  0.2049E-02  0.2669E-04  0.2669E-04  0.2049E-02  0.2049E-02  0.1257E-02  0.1258E-02  0.1739E-04  0.1739E-04  0.1248E-03  0.1248E-03  0.1739E-04  0.1739E-04  0.1257E-02  0.1258E-02
     -8.614  0.1845E-01  0.1845E-01  0.3334E-02  0.3334E-02  0.3570E-04  0.3570E-04  0.3334E-02  0.3334E-02  0.2095E-02  0.2095E-02  0.2604E-04  0.2604E-04  0.1950E-03  0.1950E-03  0.2604E-04  0.2604E-04  0.2095E-02  0.2095E-02
     -8.544  0.1851E-01  0.1851E-01  0.3893E-02  0.3893E-02  0.4102E-04  0.4102E-04  0.3893E-02  0.3893E-02  0.2541E-02  0.2541E-02  0.3554E-04  0.3554E-04  0.2114E-03  0.2114E-03  0.3554E-04  0.3554E-04  0.2541E-02  0.2541E-02
     -8.474  0.1022E-01  0.1022E-01  0.2428E-02  0.2428E-02  0.1588E-02  0.1588E-02  0.2428E-02  0.2428E-02  0.1636E-02  0.1636E-02  0.3409E-04  0.3409E-04  0.1211E-03  0.1211E-03  0.3409E-04  0.3409E-04  0.1636E-02  0.1636E-02
     -8.404  0.8979E-02  0.8979E-02  0.2062E-02  0.2062E-02  0.6476E-01  0.6476E-01  0.2062E-02  0.2062E-02  0.1437E-02  0.1437E-02  0.1195E-02  0.1195E-02  0.1042E-03  0.1042E-03  0.1195E-02  0.1195E-02  0.1437E-02  0.1437E-02
     -8.334  0.1588E-01  0.1588E-01  0.4509E-02  0.4509E-02  0.2828E-01  0.2828E-01  0.4509E-02  0.4509E-02  0.3206E-02  0.3206E-02  0.2791E-02  0.2791E-02  0.2063E-03  0.2063E-03  0.2791E-02  0.2791E-02  0.3206E-02  0.3206E-02
     -8.264  0.1381E-01  0.1381E-01  0.4601E-02  0.4601E-02  0.4690E-01  0.4690E-01  0.4601E-02  0.4601E-02  0.3414E-02  0.3414E-02  0.3926E-02  0.3926E-02  0.1902E-03  0.1902E-03  0.3926E-02  0.3926E-02  0.3414E-02  0.3414E-02
     -8.194  0.1090E-01  0.1090E-01  0.4196E-02  0.4196E-02  0.3372E-01  0.3372E-01  0.4196E-02  0.4196E-02  0.3247E-02  0.3247E-02  0.5673E-02  0.5673E-02  0.1572E-03  0.1572E-03  0.5673E-02  0.5673E-02  0.3247E-02  0.3247E-02
     -8.124  0.9528E-02  0.9528E-02  0.4209E-02  0.4209E-02  0.2611E-01  0.2611E-01  0.4209E-02  0.4209E-02  0.3371E-02  0.3371E-02  0.7643E-02  0.7643E-02  0.1444E-03  0.1444E-03  0.7643E-02  0.7643E-02  0.3371E-02  0.3371E-02
     -8.054  0.1104E-01  0.1104E-01  0.5728E-02  0.5728E-02  0.2173E-01  0.2173E-01  0.5728E-02  0.5728E-02  0.4671E-02  0.4671E-02  0.9795E-02  0.9795E-02  0.1750E-03  0.1750E-03  0.9795E-02  0.9795E-02  0.4671E-02  0.4671E-02
     -7.984  0.1014E-01  0.1014E-01  0.6363E-02  0.6363E-02  0.1762E-01  0.1761E-01  0.6363E-02  0.6363E-02  0.5394E-02  0.5394E-02  0.1097E-01  0.1097E-01  0.1656E-03  0.1656E-03  0.1097E-01  0.1097E-01  0.5394E-02  0.5394E-02
     -7.914  0.1005E-01  0.1005E-01  0.7734E-02  0.7734E-02  0.1451E-01  0.1451E-01  0.7734E-02  0.7734E-02  0.6879E-02  0.6879E-02  0.1207E-01  0.1207E-01  0.1640E-03  0.1640E-03  0.1207E-01  0.1207E-01  0.6879E-02  0.6879E-02
     -7.844  0.1006E-01  0.1006E-01  0.9792E-02  0.9792E-02  0.1385E-01  0.1385E-01  0.9792E-02  0.9792E-02  0.9056E-02  0.9056E-02  0.1588E-01  0.1588E-01  0.1603E-03  0.1603E-03  0.1588E-01  0.1588E-01  0.9056E-02  0.9056E-02
     -7.774  0.3539E-01  0.3539E-01  0.4518E-01  0.4518E-01  0.1036E-01  0.1036E-01  0.4518E-01  0.4518E-01  0.4416E-01  0.4416E-01  0.1673E-01  0.1673E-01  0.4972E-03  0.4972E-03  0.1673E-01  0.1673E-01  0.4416E-01  0.4416E-01
     -7.704  0.1687E-01  0.1687E-01  0.2992E-01  0.2992E-01  0.1077E-01  0.1077E-01  0.2992E-01  0.2992E-01  0.2844E-01  0.2844E-01  0.2405E-01  0.2405E-01  0.2617E-03  0.2617E-03  0.2405E-01  0.2405E-01  0.2844E-01  0.2844E-01
     -7.634  0.9494E-02  0.9494E-02  0.2953E-01  0.2953E-01  0.7772E-02  0.7772E-02  0.2953E-01  0.2953E-01  0.2745E-01  0.2745E-01  0.2708E-01  0.2708E-01  0.1697E-03  0.1697E-03  0.2708E-01  0.2708E-01  0.2745E-01  0.2745E-01
     -7.564  0.4501E-02  0.4501E-02  0.4815E-01  0.4815E-01  0.1095E-01  0.1095E-01  0.4815E-01  0.4815E-01  0.4461E-01  0.4461E-01  0.7970E-01  0.7970E-01  0.8907E-04  0.8907E-04  0.7970E-01  0.7970E-01  0.4461E-01  0.4461E-01
     -7.494  0.4010E-03  0.4010E-03  0.1810E-01  0.1810E-01  0.1179E-01  0.1179E-01  0.1810E-01  0.1810E-01  0.1682E-01  0.1682E-01  0.1295E+00  0.1295E+00  0.5805E-05  0.5805E-05  0.1295E+00  0.1295E+00  0.1682E-01  0.1682E-01
     -7.424  0.5596E-04  0.5596E-04  0.2227E-03  0.2227E-03  0.4177E-02  0.4177E-02  0.2227E-03  0.2227E-03  0.2119E-03  0.2119E-03  0.1092E+00  0.1092E+00  0.8503E-06  0.8503E-06  0.1092E+00  0.1092E+00  0.2119E-03  0.2119E-03
     -7.354  0.1944E-05  0.1943E-05  0.3596E-04  0.3596E-04  0.4598E-03  0.4598E-03  0.3596E-04  0.3596E-04  0.3400E-04  0.3400E-04  0.8604E-01  0.8604E-01  0.5176E-06  0.5176E-06  0.8604E-01  0.8604E-01  0.3400E-04  0.3400E-04
     -7.284  0.0000E+00  0.0000E+00  0.0000E+00  0.0000E+00  0.0000E+00  0.0000E+00  0.0000E+00  0.0000E+00  0.0000E+00  0.0000E+00  0.0000E+00  0.0000E+00  0.0000E+00  0.0000E+00  0.0000E+00  0.0000E+00  0.0000E+00  0.0000E+00
     -7.214  0.0000E+00  0.0000E+00  0.0000E+00  0.0000E+00  0.0000E+00  0.0000E+00  0.0000E+00  0.0000E+00  0.0000E+00  0.0000E+00  0.0000E+00  0.0000E+00  0.0000E+00  0.0000E+00  0.0000E+00  0.0000E+00  0.0000E+00  0.0000E+00
     -7.144  0.0000E+00  0.0000E+00  0.0000E+00  0.0000E+00  0.0000E+00  0.0000E+00  0.0000E+00  0.0000E+00  0.0000E+00  0.0000E+00  0.0000E+00  0.0000E+00  0.0000E+00  0.0000E+00  0.0000E+00  0.0000E+00  0.0000E+00  0.0000E+00