       N       E                     dE             d eps       ncg     rms          rms(c)
DAV:   1     0.280002638542E+03    0.28000E+03   -0.22943E+04 15984   0.119E+03
DAV:   2    -0.393756203435E+02   -0.31938E+03   -0.30194E+03 19942   0.257E+02
DAV:   3    -0.636217486084E+02   -0.24246E+02   -0.23706E+02 19454   0.666E+01
DAV:   4    -0.643171924303E+02   -0.69544E+00   -0.69227E+00 21194   0.117E+01
DAV:   5    -0.643335555245E+02   -0.16363E-01   -0.16341E-01 20756   0.177E+00    0.119E+00
RMM:   6    -0.643092092155E+02    0.24346E-01   -0.19151E-01 16638   0.139E+00    0.129E+00
RMM:   7    -0.642976330171E+02    0.11576E-01   -0.18204E-02 17444   0.705E-01    0.664E-01
RMM:   8    -0.642953867660E+02    0.22463E-02   -0.10425E-02 18709   0.328E-01    0.163E-01
RMM:   9    -0.642953307111E+02    0.56055E-04   -0.25578E-03 20109   0.191E-01    0.117E-01
RMM:  10    -0.642953387383E+02   -0.80272E-05   -0.45887E-04 21056   0.926E-02    0.417E-02
RMM:  11    -0.642953475903E+02   -0.88519E-05   -0.22379E-04 20757   0.511E-02    0.240E-02
RMM:  12    -0.642953496879E+02   -0.20977E-05   -0.45878E-05 23060   0.246E-02    0.259E-02
RMM:  13    -0.642953478756E+02    0.18123E-05   -0.68058E-06 23066   0.877E-03    0.193E-02
RMM:  14    -0.642953461712E+02    0.17044E-05   -0.67251E-06 20121   0.759E-03    0.480E-03
RMM:  15    -0.642953465310E+02   -0.35979E-06   -0.22470E-06 21088   0.541E-03    0.187E-03
RMM:  16    -0.642953465892E+02   -0.58273E-07   -0.34376E-07 16146   0.243E-03
   1 F= -.67882443E+02 E0= -.67882443E+02  d E =-.623957E-17  mag=    -0.0000
