 vasp.6.2.0 18Jan21 (build Jul 28 2023 11:58:00) complex                         
 executed on             LinuxGNU date 2025.02.13  08:27:39
 running on    2 total cores
 distrk:  each k-point on    2 cores,    1 groups
 distr:  one band on NCORE=   1 cores,    2 groups


--------------------------------------------------------------------------------------------------------


 INCAR:
   ISTART = 0
   ICHARG = 1
   ENMAX = 500
   PREC = Accurate
   ALGO = Fast
   NELM = 100
   ISMEAR = 0
   SIGMA = 1E-2
   LORBIT = 11
   EDIFF = 1E-7
   IVDW = 12
   ISPIN = 2

 POTCAR:    PAW_PBE Mo 08Apr2002                  
 POTCAR:    PAW_PBE S 06Sep2000                   
 -----------------------------------------------------------------------------
|                                                                             |
|           W    W    AA    RRRRR   N    N  II  N    N   GGGG   !!!           |
|           W    W   A  A   R    R  NN   N  II  NN   N  G    G  !!!           |
|           W    W  A    A  R    R  N N  N  II  N N  N  G       !!!           |
|           W WW W  AAAAAA  RRRRR   N  N N  II  N  N N  G  GGG   !            |
|           WW  WW  A    A  R   R   N   NN  II  N   NN  G    G                |
|           W    W  A    A  R    R  N    N  II  N    N   GGGG   !!!           |
|                                                                             |
|     You use a magnetic or noncollinear calculation, but did not specify     |
|     the initial magnetic moment with the MAGMOM tag. Note that a            |
|     default of 1 will be used for all atoms. This ferromagnetic setup       |
|     may break the symmetry of the crystal, in particular it may rule        |
|     out finding an antiferromagnetic solution. Thence, we recommend         |
|     setting the initial magnetic moment manually or verifying carefully     |
|     that this magnetic setup is desired.                                    |
|                                                                             |
 -----------------------------------------------------------------------------

 POTCAR:    PAW_PBE Mo 08Apr2002                  
   SHA256 =  e91eef5e768b52c866a1a7e0829a38a041f11142f3595800aaf3206086d6c164 Mo/POTCAR             
   COPYR  = (c) Copyright 08Apr2002 Georg Kresse                                                    
   COPYR  = This file is part of the software VASP. Any use, copying, and all other rights are regul
   COPYR  = If you do not have a valid VASP license, you may not use, copy or distribute this file. 
   VRHFIN =Mo: 4p5s4d                                                                               
   LEXCH  = PE                                                                                      
   EATOM  =   217.5176 eV,   15.9871 Ry                                                             
                                                                                                    
   TITEL  = PAW_PBE Mo 08Apr2002                                                                    
   LULTRA =        F    use ultrasoft PP ?                                                          
   IUNSCR =        1    unscreen: 0-lin 1-nonlin 2-no                                               
   RPACOR =    2.200    partial core radius                                                         
   POMASS =   95.940; ZVAL   =    6.000    mass and valenz                                          
   RCORE  =    2.750    outmost cutoff radius                                                       
   RWIGS  =    2.750; RWIGS  =    1.455    wigner-seitz radius (au A)                               
   ENMAX  =  224.584; ENMIN  =  168.438 eV                                                          
   RCLOC  =    2.111    cutoff for local pot                                                        
   LCOR   =        T    correct aug charges                                                         
   LPAW   =        T    paw PP                                                                      
   EAUG   =  345.278                                                                                
   DEXC   =    0.000                                                                                
   RMAX   =    2.821    core radius for proj-oper                                                   
   RAUG   =    1.300    factor for augmentation sphere                                              
   RDEP   =    2.815    radius for radial grids                                                     
   RDEPT  =    2.211    core radius for aug-charge                                                  
                                                                                                    
   Atomic configuration                                                                             
   12 entries                                                                                       
     n  l   j            E        occ.                                                              
     1  0  0.50    -19819.0341   2.0000                                                             
     2  0  0.50     -2799.0127   2.0000                                                             
     2  1  1.50     -2502.0276   6.0000                                                             
     3  0  0.50      -476.4448   2.0000                                                             
     3  1  1.50      -379.1496   6.0000                                                             
     3  2  2.50      -220.9367  10.0000                                                             
     4  0  0.50       -64.3378   2.0000                                                             
     4  1  1.50       -38.4773   6.0000                                                             
     4  2  2.50        -3.7535   5.0000                                                             
     5  0  0.50        -4.0862   1.0000                                                             
     5  1  0.50        -2.7701   0.0000                                                             
     4  3  2.50        -1.3606   0.0000                                                             
   Description                                                                                      
     l       E           TYP  RCUT    TYP  RCUT                                                     
     2     -3.7534765     23  2.500                                                                 
     2     -5.1140591     23  2.500                                                                 
     0     -4.0861560     23  2.600                                                                 
     0     13.6058260     23  2.600                                                                 
     1      5.4423304     23  2.750                                                                 
     1     27.2116520     23  2.750                                                                 
  local pseudopotential read in
  partial core-charges read in
  partial kinetic energy density read in
  atomic valenz-charges read in
  non local Contribution for L=           2  read in
    real space projection operators read in
  non local Contribution for L=           2  read in
    real space projection operators read in
  non local Contribution for L=           0  read in
    real space projection operators read in
  non local Contribution for L=           0  read in
    real space projection operators read in
  non local Contribution for L=           1  read in
    real space projection operators read in
  non local Contribution for L=           1  read in
    real space projection operators read in
    PAW grid and wavefunctions read in

   number of l-projection  operators is LMAX  =           6
   number of lm-projection operators is LMMAX =          18

 POTCAR:    PAW_PBE S 06Sep2000                   
   SHA256 =  0fc7481fb0695f01bdc6462160264c5c84044ae9ec85a907d398b887a2bc3132 S/POTCAR              
   COPYR  = (c) Copyright 06Sep2000 Georg Kresse                                                    
   COPYR  = This file is part of the software VASP. Any use, copying, and all other rights are regul
   COPYR  = If you do not have a valid VASP license, you may not use, copy or distribute this file. 
   VRHFIN =S : s2p4                                                                                 
   LEXCH  = PE                                                                                      
   EATOM  =   276.8230 eV,   20.3459 Ry                                                             
                                                                                                    
   TITEL  = PAW_PBE S 06Sep2000                                                                     
   LULTRA =        F    use ultrasoft PP ?                                                          
   IUNSCR =        1    unscreen: 0-lin 1-nonlin 2-no                                               
   RPACOR =    1.500    partial core radius                                                         
   POMASS =   32.066; ZVAL   =    6.000    mass and valenz                                          
   RCORE  =    1.900    outmost cutoff radius                                                       
   RWIGS  =    2.200; RWIGS  =    1.164    wigner-seitz radius (au A)                               
   ENMAX  =  258.689; ENMIN  =  194.016 eV                                                          
   ICORE  =        2    local potential                                                             
   LCOR   =        T    correct aug charges                                                         
   LPAW   =        T    paw PP                                                                      
   EAUG   =  335.092                                                                                
   DEXC   =    0.000                                                                                
   RMAX   =    1.942    core radius for proj-oper                                                   
   RAUG   =    1.300    factor for augmentation sphere                                              
   RDEP   =    1.954    radius for radial grids                                                     
   RDEPT  =    1.744    core radius for aug-charge                                                  
                                                                                                    
   Atomic configuration                                                                             
    6 entries                                                                                       
     n  l   j            E        occ.                                                              
     1  0  0.50     -2405.8406   2.0000                                                             
     2  0  0.50      -211.7007   2.0000                                                             
     2  1  1.50      -156.4958   6.0000                                                             
     3  0  0.50       -17.2562   2.0000                                                             
     3  1  0.50        -7.0085   4.0000                                                             
     3  2  1.50        -6.8029   0.0000                                                             
   Description                                                                                      
     l       E           TYP  RCUT    TYP  RCUT                                                     
     0    -17.2561641     23  1.900                                                                 
     0    -15.8743224     23  1.900                                                                 
     1     -7.0085400     23  1.900                                                                 
     1     -2.7779785     23  1.900                                                                 
     2     -6.8029130     23  1.900                                                                 
  local pseudopotential read in
  partial core-charges read in
  partial kinetic energy density read in
  atomic valenz-charges read in
  non local Contribution for L=           0  read in
    real space projection operators read in
  non local Contribution for L=           0  read in
    real space projection operators read in
  non local Contribution for L=           1  read in
    real space projection operators read in
  non local Contribution for L=           1  read in
    real space projection operators read in
    PAW grid and wavefunctions read in

   number of l-projection  operators is LMAX  =           4
   number of lm-projection operators is LMMAX =           8

  PAW_PBE Mo 08Apr2002                  :
 energy of atom  1       EATOM= -217.5176
 kinetic energy error for atom=    0.0017 (will be added to EATOM!!)
  PAW_PBE S 06Sep2000                   :
 energy of atom  2       EATOM= -276.8230
 kinetic energy error for atom=    0.0020 (will be added to EATOM!!)


 POSCAR: Mo3 S6
  positions in direct lattice
  velocities in cartesian coordinates
 exchange correlation table for  LEXCH =        8
   RHO(1)=    0.500       N(1)  =     2000
   RHO(2)=  100.500       N(2)  =     4000



--------------------------------------------------------------------------------------------------------


 ion  position               nearest neighbor table
   1  0.667  0.333  0.333-   5 2.41   5 2.41   5 2.41   6 2.41   6 2.41   6 2.41
   2  0.333  0.667  0.666-   7 2.41   7 2.41   7 2.41   8 2.41   8 2.41   8 2.41
   3  0.000  0.000  1.000-   9 2.41   9 2.41   9 2.41   4 2.41   4 2.41   4 2.41
   4  0.333  0.667  0.080-   3 2.41   3 2.41   3 2.41
   5  0.000  0.000  0.253-   1 2.41   1 2.41   1 2.41
   6  0.000  0.000  0.413-   1 2.41   1 2.41   1 2.41
   7  0.667  0.333  0.586-   2 2.41   2 2.41   2 2.41
   8  0.667  0.333  0.747-   2 2.41   2 2.41   2 2.41
   9  0.333  0.667  0.920-   3 2.41   3 2.41   3 2.41

  LATTYP: Found a hexagonal cell.
 ALAT       =     3.1843038310
 C/A-ratio  =     6.1069220059
  
  Lattice vectors:
  
 A1 = (   1.5921519155,  -2.7576880110,   0.0000000000)
 A2 = (   1.5921519155,   2.7576880110,   0.0000000000)
 A3 = (   0.0000000000,   0.0000000000,  19.4462951388)


Analysis of symmetry for initial positions (statically):
=====================================================================
 Subroutine PRICEL returns following result:
 
  LATTYP: Found a trigonal (rhomboedric) cell.
 ALAT       =     6.7377688962
 COS(alpha) =     0.8883222176
  
  Lattice vectors:
  
 A1 = (   0.0000000000,  -1.8384586740,  -6.4820983796)
 A2 = (  -1.5921519155,   0.9192293370,  -6.4820983796)
 A3 = (   1.5921519155,   0.9192293370,  -6.4820983796)
 
   3 primitive cells build up your supercell.
 

 Routine SETGRP: Setting up the symmetry group for a 
 hexagonal supercell.


 Subroutine GETGRP returns: Found  6 space group operations
 (whereof  6 operations were pure point group operations)
 out of a pool of 24 trial point group operations.


The static configuration has the point symmetry C_3v.


Analysis of symmetry for dynamics (positions and initial velocities):
=====================================================================
 Subroutine PRICEL returns following result:
 
  LATTYP: Found a trigonal (rhomboedric) cell.
 ALAT       =     6.7377688962
 COS(alpha) =     0.8883222176
  
  Lattice vectors:
  
 A1 = (   0.0000000000,  -1.8384586740,  -6.4820983796)
 A2 = (  -1.5921519155,   0.9192293370,  -6.4820983796)
 A3 = (   1.5921519155,   0.9192293370,  -6.4820983796)
 
   3 primitive cells build up your supercell.
 

 Routine SETGRP: Setting up the symmetry group for a 
 hexagonal supercell.


 Subroutine GETGRP returns: Found  6 space group operations
 (whereof  6 operations were pure point group operations)
 out of a pool of 24 trial point group operations.


The dynamic configuration has the point symmetry C_3v.


Analysis of structural, dynamic, and magnetic symmetry:
=====================================================================
 Subroutine PRICEL returns following result:
 
  LATTYP: Found a trigonal (rhomboedric) cell.
 ALAT       =     6.7377688962
 COS(alpha) =     0.8883222176
  
  Lattice vectors:
  
 A1 = (   0.0000000000,  -1.8384586740,  -6.4820983796)
 A2 = (  -1.5921519155,   0.9192293370,  -6.4820983796)
 A3 = (   1.5921519155,   0.9192293370,  -6.4820983796)
 
   3 primitive cells build up your supercell.
 

 Routine SETGRP: Setting up the symmetry group for a 
 hexagonal supercell.


 Subroutine GETGRP returns: Found  6 space group operations
 (whereof  6 operations were pure point group operations)
 out of a pool of 24 trial point group operations.


The overall configuration has the point symmetry C_3v.


 Subroutine INISYM returns: Found  6 space group operations
 (whereof  6 operations are pure point group operations),
 and found     3 'primitive' translations


----------------------------------------------------------------------------------------

                                     Primitive cell                                     

  volume of cell :      56.9214

  direct lattice vectors                    reciprocal lattice vectors
     0.000000000 -1.838458674 -6.482098380    -0.000000000 -0.362622601 -0.051423677
    -1.592151915  0.919229337 -6.482098380    -0.314040385  0.181311301 -0.051423677
     1.592151915  0.919229337 -6.482098380     0.314040385  0.181311301 -0.051423677

  length of vectors
     6.737768896  6.737768896  6.737768896     0.366250659  0.366250659  0.366250659

  position of ions in fractional coordinates (direct lattice)
     0.000224789  0.000224789  0.000224789
     0.586641961  0.586641961  0.586641961
     0.747132250  0.747132250  0.747132250

  ion indices of the primitive-cell ions
   primitive index   ion index
                 1           1
                 2           8
                 3           7

----------------------------------------------------------------------------------------



 KPOINTS: Special k-points for band structure     

Interpolating k-points between supplied coordinates.

 Line segments in fractional coordinates (reciprocal lattice):
    0.000000  0.000000  0.000000  ...  0.500000  0.000000  0.000000
    0.500000  0.000000  0.000000  ...  0.333333  0.333333  0.000000
    0.333333  0.333333  0.000000  ...  0.000000  0.000000  0.000000

 Generated    35 points on each line segment, for a total of    105 k-points:

 Following reciprocal coordinates:
            Coordinates               Weight
  0.000000  0.000000  0.000000      0.009524
  0.014706  0.000000  0.000000      0.009524
  0.029412  0.000000  0.000000      0.009524
  0.044118  0.000000  0.000000      0.009524
  0.058824  0.000000  0.000000      0.009524
  0.073529  0.000000  0.000000      0.009524
  0.088235  0.000000  0.000000      0.009524
  0.102941  0.000000  0.000000      0.009524
  0.117647  0.000000  0.000000      0.009524
  0.132353  0.000000  0.000000      0.009524
  0.147059  0.000000  0.000000      0.009524
  0.161765  0.000000  0.000000      0.009524
  0.176471  0.000000  0.000000      0.009524
  0.191176  0.000000  0.000000      0.009524
  0.205882  0.000000  0.000000      0.009524
  0.220588  0.000000  0.000000      0.009524
  0.235294  0.000000  0.000000      0.009524
  0.250000  0.000000  0.000000      0.009524
  0.264706  0.000000  0.000000      0.009524
  0.279412  0.000000  0.000000      0.009524
  0.294118  0.000000  0.000000      0.009524
  0.308824  0.000000  0.000000      0.009524
  0.323529  0.000000  0.000000      0.009524
  0.338235  0.000000  0.000000      0.009524
  0.352941  0.000000  0.000000      0.009524
  0.367647  0.000000  0.000000      0.009524
  0.382353  0.000000  0.000000      0.009524
  0.397059  0.000000  0.000000      0.009524
  0.411765  0.000000  0.000000      0.009524
  0.426471  0.000000  0.000000      0.009524
  0.441176  0.000000  0.000000      0.009524
  0.455882  0.000000  0.000000      0.009524
  0.470588  0.000000  0.000000      0.009524
  0.485294  0.000000  0.000000      0.009524
  0.500000  0.000000  0.000000      0.009524
  0.500000  0.000000  0.000000      0.009524
  0.495098  0.009804  0.000000      0.009524
  0.490196  0.019608  0.000000      0.009524
  0.485294  0.029412  0.000000      0.009524
  0.480392  0.039216  0.000000      0.009524
  0.475490  0.049020  0.000000      0.009524
  0.470588  0.058824  0.000000      0.009524
  0.465686  0.068627  0.000000      0.009524
  0.460784  0.078431  0.000000      0.009524
  0.455882  0.088235  0.000000      0.009524
  0.450980  0.098039  0.000000      0.009524
  0.446078  0.107843  0.000000      0.009524
  0.441176  0.117647  0.000000      0.009524
  0.436275  0.127451  0.000000      0.009524
  0.431373  0.137255  0.000000      0.009524
  0.426471  0.147059  0.000000      0.009524
  0.421569  0.156863  0.000000      0.009524
  0.416667  0.166667  0.000000      0.009524
  0.411765  0.176471  0.000000      0.009524
  0.406863  0.186275  0.000000      0.009524
  0.401961  0.196078  0.000000      0.009524
  0.397059  0.205882  0.000000      0.009524
  0.392157  0.215686  0.000000      0.009524
  0.387255  0.225490  0.000000      0.009524
  0.382353  0.235294  0.000000      0.009524
  0.377451  0.245098  0.000000      0.009524
  0.372549  0.254902  0.000000      0.009524
  0.367647  0.264706  0.000000      0.009524
  0.362745  0.274510  0.000000      0.009524
  0.357843  0.284314  0.000000      0.009524
  0.352941  0.294118  0.000000      0.009524
  0.348039  0.303922  0.000000      0.009524
  0.343137  0.313725  0.000000      0.009524
  0.338235  0.323529  0.000000      0.009524
  0.333333  0.333333  0.000000      0.009524
  0.333333  0.333333  0.000000      0.009524
  0.323529  0.323529  0.000000      0.009524
  0.313725  0.313725  0.000000      0.009524
  0.303922  0.303922  0.000000      0.009524
  0.294118  0.294118  0.000000      0.009524
  0.284314  0.284314  0.000000      0.009524
  0.274510  0.274510  0.000000      0.009524
  0.264706  0.264706  0.000000      0.009524
  0.254902  0.254902  0.000000      0.009524
  0.245098  0.245098  0.000000      0.009524
  0.235294  0.235294  0.000000      0.009524
  0.225490  0.225490  0.000000      0.009524
  0.215686  0.215686  0.000000      0.009524
  0.205882  0.205882  0.000000      0.009524
  0.196078  0.196078  0.000000      0.009524
  0.186275  0.186275  0.000000      0.009524
  0.176471  0.176471  0.000000      0.009524
  0.166667  0.166667  0.000000      0.009524
  0.156863  0.156863  0.000000      0.009524
  0.147059  0.147059  0.000000      0.009524
  0.137255  0.137255  0.000000      0.009524
  0.127451  0.127451  0.000000      0.009524
  0.117647  0.117647  0.000000      0.009524
  0.107843  0.107843  0.000000      0.009524
  0.098039  0.098039  0.000000      0.009524
  0.088235  0.088235  0.000000      0.009524
  0.078431  0.078431  0.000000      0.009524
  0.068627  0.068627  0.000000      0.009524
  0.058824  0.058824  0.000000      0.009524
  0.049020  0.049020  0.000000      0.009524
  0.039216  0.039216  0.000000      0.009524
  0.029412  0.029412  0.000000      0.009524
  0.019608  0.019608  0.000000      0.009524
  0.009804  0.009804  0.000000      0.009524
  0.000000  0.000000  0.000000      0.009524

 Following cartesian coordinates:
            Coordinates               Weight
  0.000000  0.000000  0.000000      0.009524
  0.004618 -0.002666  0.000000      0.009524
  0.009236 -0.005333  0.000000      0.009524
  0.013855 -0.007999  0.000000      0.009524
  0.018473 -0.010665  0.000000      0.009524
  0.023091 -0.013332  0.000000      0.009524
  0.027709 -0.015998  0.000000      0.009524
  0.032328 -0.018664  0.000000      0.009524
  0.036946 -0.021331  0.000000      0.009524
  0.041564 -0.023997  0.000000      0.009524
  0.046182 -0.026663  0.000000      0.009524
  0.050801 -0.029330  0.000000      0.009524
  0.055419 -0.031996  0.000000      0.009524
  0.060037 -0.034662  0.000000      0.009524
  0.064655 -0.037329  0.000000      0.009524
  0.069274 -0.039995  0.000000      0.009524
  0.073892 -0.042661  0.000000      0.009524
  0.078510 -0.045328  0.000000      0.009524
  0.083128 -0.047994  0.000000      0.009524
  0.087747 -0.050661  0.000000      0.009524
  0.092365 -0.053327  0.000000      0.009524
  0.096983 -0.055993  0.000000      0.009524
  0.101601 -0.058660  0.000000      0.009524
  0.106220 -0.061326  0.000000      0.009524
  0.110838 -0.063992  0.000000      0.009524
  0.115456 -0.066659  0.000000      0.009524
  0.120074 -0.069325  0.000000      0.009524
  0.124693 -0.071991  0.000000      0.009524
  0.129311 -0.074658  0.000000      0.009524
  0.133929 -0.077324  0.000000      0.009524
  0.138547 -0.079990  0.000000      0.009524
  0.143165 -0.082657  0.000000      0.009524
  0.147784 -0.085323  0.000000      0.009524
  0.152402 -0.087989  0.000000      0.009524
  0.157020 -0.090656  0.000000      0.009524
  0.157020 -0.090656  0.000000      0.009524
  0.158560 -0.087989  0.000000      0.009524
  0.160099 -0.085323  0.000000      0.009524
  0.161638 -0.082657  0.000000      0.009524
  0.163178 -0.079990  0.000000      0.009524
  0.164717 -0.077324  0.000000      0.009524
  0.166257 -0.074658  0.000000      0.009524
  0.167796 -0.071991  0.000000      0.009524
  0.169336 -0.069325  0.000000      0.009524
  0.170875 -0.066659  0.000000      0.009524
  0.172414 -0.063992  0.000000      0.009524
  0.173954 -0.061326  0.000000      0.009524
  0.175493 -0.058660  0.000000      0.009524
  0.177033 -0.055993  0.000000      0.009524
  0.178572 -0.053327  0.000000      0.009524
  0.180111 -0.050661  0.000000      0.009524
  0.181651 -0.047994  0.000000      0.009524
  0.183190 -0.045328  0.000000      0.009524
  0.184730 -0.042661  0.000000      0.009524
  0.186269 -0.039995  0.000000      0.009524
  0.187808 -0.037329  0.000000      0.009524
  0.189348 -0.034662  0.000000      0.009524
  0.190887 -0.031996  0.000000      0.009524
  0.192427 -0.029330  0.000000      0.009524
  0.193966 -0.026663  0.000000      0.009524
  0.195506 -0.023997  0.000000      0.009524
  0.197045 -0.021331  0.000000      0.009524
  0.198584 -0.018664  0.000000      0.009524
  0.200124 -0.015998  0.000000      0.009524
  0.201663 -0.013332  0.000000      0.009524
  0.203203 -0.010665  0.000000      0.009524
  0.204742 -0.007999  0.000000      0.009524
  0.206281 -0.005333  0.000000      0.009524
  0.207821 -0.002666  0.000000      0.009524
  0.209360  0.000000  0.000000      0.009524
  0.209360  0.000000  0.000000      0.009524
  0.203203  0.000000  0.000000      0.009524
  0.197045 -0.000000  0.000000      0.009524
  0.190887 -0.000000  0.000000      0.009524
  0.184730  0.000000  0.000000      0.009524
  0.178572 -0.000000  0.000000      0.009524
  0.172414  0.000000  0.000000      0.009524
  0.166257  0.000000  0.000000      0.009524
  0.160099  0.000000  0.000000      0.009524
  0.153941 -0.000000  0.000000      0.009524
  0.147784  0.000000  0.000000      0.009524
  0.141626 -0.000000  0.000000      0.009524
  0.135468 -0.000000  0.000000      0.009524
  0.129311  0.000000  0.000000      0.009524
  0.123153  0.000000  0.000000      0.009524
  0.116995 -0.000000  0.000000      0.009524
  0.110838  0.000000  0.000000      0.009524
  0.104680  0.000000  0.000000      0.009524
  0.098522 -0.000000  0.000000      0.009524
  0.092365  0.000000  0.000000      0.009524
  0.086207  0.000000  0.000000      0.009524
  0.080050  0.000000  0.000000      0.009524
  0.073892  0.000000  0.000000      0.009524
  0.067734 -0.000000  0.000000      0.009524
  0.061577  0.000000  0.000000      0.009524
  0.055419  0.000000  0.000000      0.009524
  0.049261 -0.000000  0.000000      0.009524
  0.043104 -0.000000  0.000000      0.009524
  0.036946  0.000000  0.000000      0.009524
  0.030788  0.000000  0.000000      0.009524
  0.024631  0.000000  0.000000      0.009524
  0.018473 -0.000000  0.000000      0.009524
  0.012315 -0.000000  0.000000      0.009524
  0.006158 -0.000000  0.000000      0.009524
  0.000000  0.000000  0.000000      0.009524



--------------------------------------------------------------------------------------------------------




 Dimension of arrays:
   k-points           NKPTS =    105   k-points in BZ     NKDIM =    105   number of bands    NBANDS=     38
   number of dos      NEDOS =    301   number of ions     NIONS =      9
   non local maximal  LDIM  =      6   non local SUM 2l+1 LMDIM =     18
   total plane-waves  NPLWV =  82944
   max r-space proj   IRMAX =      1   max aug-charges    IRDMAX=  31381
   dimension x,y,z NGX =    24 NGY =   24 NGZ =  144
   dimension x,y,z NGXF=    48 NGYF=   48 NGZF=  288
   support grid    NGXF=    48 NGYF=   48 NGZF=  288
   ions per type =               3   6
   NGX,Y,Z   is equivalent  to a cutoff of  12.53, 12.53, 12.31 a.u.
   NGXF,Y,Z  is equivalent  to a cutoff of  25.06, 25.06, 24.62 a.u.

 SYSTEM =  unknown system                          
 POSCAR =  Mo3 S6                                  

 Startparameter for this run:
   NWRITE =      2    write-flag & timer
   PREC   = accura    normal or accurate (medium, high low for compatibility)
   ISTART =      0    job   : 0-new  1-cont  2-samecut
   ICHARG =      1    charge: 1-file 2-atom 10-const
   ISPIN  =      2    spin polarized calculation?
   LNONCOLLINEAR =      F non collinear calculations
   LSORBIT =      F    spin-orbit coupling
   INIWAV =      1    electr: 0-lowe 1-rand  2-diag
   LASPH  =      F    aspherical Exc in radial PAW
   METAGGA=      F    non-selfconsistent MetaGGA calc.

 Electronic Relaxation 1
   ENCUT  =  500.0 eV  36.75 Ry    6.06 a.u.   5.81  5.81 35.46*2*pi/ulx,y,z
   ENINI  =  500.0     initial cutoff
   ENAUG  =  345.3 eV  augmentation charge cutoff
   NELM   =    100;   NELMIN=  2; NELMDL= -5     # of ELM steps 
   EDIFF  = 0.1E-06   stopping-criterion for ELM
   LREAL  =      F    real-space projection
   NLSPLINE    = F    spline interpolate recip. space projectors
   LCOMPAT=      F    compatible to vasp.4.4
   GGA_COMPAT  = T    GGA compatible to vasp.4.4-vasp.4.6
   LMAXPAW     = -100 max onsite density
   LMAXMIX     =    2 max onsite mixed and CHGCAR
   VOSKOWN=      0    Vosko Wilk Nusair interpolation
   ROPT   =    0.00000   0.00000
 Ionic relaxation
   EDIFFG = 0.1E-05   stopping-criterion for IOM
   NSW    =      0    number of steps for IOM
   NBLOCK =      1;   KBLOCK =      1    inner block; outer block 
   IBRION =     -1    ionic relax: 0-MD 1-quasi-New 2-CG
   NFREE  =      0    steps in history (QN), initial steepest desc. (CG)
   ISIF   =      2    stress and relaxation
   IWAVPR =     10    prediction:  0-non 1-charg 2-wave 3-comb
   ISYM   =      2    0-nonsym 1-usesym 2-fastsym
   LCORR  =      T    Harris-Foulkes like correction to forces

   POTIM  = 0.5000    time-step for ionic-motion
   TEIN   =    0.0    initial temperature
   TEBEG  =    0.0;   TEEND  =   0.0 temperature during run
   SMASS  =  -3.00    Nose mass-parameter (am)
   estimated Nose-frequenzy (Omega)   =  0.10E-29 period in steps = 0.13E+47 mass=  -0.232E-27a.u.
   SCALEE = 1.0000    scale energy and forces
   NPACO  =    256;   APACO  = 16.0  distance and # of slots for P.C.
   PSTRESS=    0.0 pullay stress

  Mass of Ions in am
   POMASS =  95.94 32.07
  Ionic Valenz
   ZVAL   =   6.00  6.00
  Atomic Wigner-Seitz radii
   RWIGS  =  -1.00 -1.00
  virtual crystal weights 
   VCA    =   1.00  1.00
   NELECT =      54.0000    total number of electrons
   NUPDOWN=      -1.0000    fix difference up-down

 DOS related values:
   EMIN   =  10.00;   EMAX   =-10.00  energy-range for DOS
   EFERMI =   0.00
   ISMEAR =     0;   SIGMA  =   0.01  broadening in eV -4-tet -1-fermi 0-gaus

 Electronic relaxation 2 (details)
   IALGO  =     68    algorithm
   LDIAG  =      T    sub-space diagonalisation (order eigenvalues)
   LSUBROT=      F    optimize rotation matrix (better conditioning)
   TURBO    =      0    0=normal 1=particle mesh
   IRESTART =      0    0=no restart 2=restart with 2 vectors
   NREBOOT  =      0    no. of reboots
   NMIN     =      0    reboot dimension
   EREF     =   0.00    reference energy to select bands
   IMIX   =      4    mixing-type and parameters
     AMIX     =   0.40;   BMIX     =  1.00
     AMIX_MAG =   1.60;   BMIX_MAG =  1.00
     AMIN     =   0.10
     WC   =   100.;   INIMIX=   1;  MIXPRE=   1;  MAXMIX= -45

 Intra band minimization:
   WEIMIN = 0.0000     energy-eigenvalue tresh-hold
   EBREAK =  0.66E-09  absolut break condition
   DEPER  =   0.30     relativ break condition  

   TIME   =   0.40     timestep for ELM

  volume/ion in A,a.u.               =      18.97       128.04
  Fermi-wavevector in a.u.,A,eV,Ry     =   1.115340  2.107687 16.925418  1.243983
  Thomas-Fermi vector in A             =   2.251944

 Write flags
   LWAVE        =      T    write WAVECAR
   LDOWNSAMPLE  =      F    k-point downsampling of WAVECAR
   LCHARG       =      T    write CHGCAR
   LVTOT        =      F    write LOCPOT, total local potential
   LVHAR        =      F    write LOCPOT, Hartree potential only
   LELF         =      F    write electronic localiz. function (ELF)
   LORBIT       =     11    0 simple, 1 ext, 2 COOP (PROOUT), +10 PAW based schemes


 Dipole corrections
   LMONO  =      F    monopole corrections only (constant potential shift)
   LDIPOL =      F    correct potential (dipole corrections)
   IDIPOL =      0    1-x, 2-y, 3-z, 4-all directions 
   EPSILON=  1.0000000 bulk dielectric constant

 Exchange correlation treatment:
   GGA     =    --    GGA type
   LEXCH   =     8    internal setting for exchange type
   VOSKOWN=      0    Vosko Wilk Nusair interpolation
   LHFCALC =     F    Hartree Fock is set to
   LHFONE  =     F    Hartree Fock one center treatment
   AEXX    =    0.0000 exact exchange contribution

 Linear response parameters
   LEPSILON=     F    determine dielectric tensor
   LRPA    =     F    only Hartree local field effects (RPA)
   LNABLA  =     F    use nabla operator in PAW spheres
   LVEL    =     F    velocity operator in full k-point grid
   LINTERFAST=   F  fast interpolation
   KINTER  =     0    interpolate to denser k-point grid
   CSHIFT  =0.1000    complex shift for real part using Kramers Kronig
   OMEGAMAX=  -1.0    maximum frequency
   DEG_THRESHOLD= 0.2000000E-02 threshold for treating states as degnerate
   RTIME   =   -0.100 relaxation time in fs
  (WPLASMAI=    0.000 imaginary part of plasma frequency in eV, 0.658/RTIME)
   DFIELD  = 0.0000000 0.0000000 0.0000000 field for delta impulse in time

 Orbital magnetization related:
   ORBITALMAG=     F  switch on orbital magnetization
   LCHIMAG   =     F  perturbation theory with respect to B field
   DQ        =  0.001000  dq finite difference perturbation B field
   LLRAUG    =     F  two centre corrections for induced B field



--------------------------------------------------------------------------------------------------------


 Static calculation
 charge density and potential will be updated during run
 spin polarized calculation
 RMM-DIIS sequential band-by-band and
  variant of blocked Davidson during initial phase
 perform sub-space diagonalisation
    before iterative eigenvector-optimisation
 modified Broyden-mixing scheme, WC =      100.0
 initial mixing is a Kerker type mixing with AMIX =  0.4000 and BMIX =      1.0000
 Hartree-type preconditioning will be used
 using additional bands           11
 reciprocal scheme for non local part
 use partial core corrections
 calculate Harris-corrections to forces   (improved forces if not selfconsistent)
 use gradient corrections 
 use of overlap-Matrix (Vanderbilt PP)
 Gauss-broadening in eV      SIGMA  =   0.01


--------------------------------------------------------------------------------------------------------


  energy-cutoff  :      500.00
  volume of cell :      170.76
      direct lattice vectors                 reciprocal lattice vectors
     1.592151915 -2.757688011  0.000000000     0.314040385 -0.181311301  0.000000000
     1.592151915  2.757688011  0.000000000     0.314040385  0.181311301 -0.000000000
     0.000000000  0.000000000 19.446295139    -0.000000000  0.000000000  0.051423677

  length of vectors
     3.184303831  3.184303831 19.446295139     0.362622601  0.362622601  0.051423677



 k-points in units of 2pi/SCALE and weight: Special k-points for band structure     
   0.00000000  0.00000000  0.00000000       0.010
   0.00461824 -0.00266634  0.00000000       0.010
   0.00923648 -0.00533269  0.00000000       0.010
   0.01385472 -0.00799903  0.00000000       0.010
   0.01847296 -0.01066537  0.00000000       0.010
   0.02309120 -0.01333171  0.00000000       0.010
   0.02770945 -0.01599806  0.00000000       0.010
   0.03232769 -0.01866440  0.00000000       0.010
   0.03694593 -0.02133074  0.00000000       0.010
   0.04156417 -0.02399708  0.00000000       0.010
   0.04618241 -0.02666343  0.00000000       0.010
   0.05080065 -0.02932977  0.00000000       0.010
   0.05541889 -0.03199611  0.00000000       0.010
   0.06003713 -0.03466245  0.00000000       0.010
   0.06465537 -0.03732880  0.00000000       0.010
   0.06927361 -0.03999514  0.00000000       0.010
   0.07389186 -0.04266148  0.00000000       0.010
   0.07851010 -0.04532783  0.00000000       0.010
   0.08312834 -0.04799417  0.00000000       0.010
   0.08774658 -0.05066051  0.00000000       0.010
   0.09236482 -0.05332685  0.00000000       0.010
   0.09698306 -0.05599320  0.00000000       0.010
   0.10160130 -0.05865954  0.00000000       0.010
   0.10621954 -0.06132588  0.00000000       0.010
   0.11083778 -0.06399222  0.00000000       0.010
   0.11545602 -0.06665857  0.00000000       0.010
   0.12007426 -0.06932491  0.00000000       0.010
   0.12469251 -0.07199125  0.00000000       0.010
   0.12931075 -0.07465759  0.00000000       0.010
   0.13392899 -0.07732394  0.00000000       0.010
   0.13854723 -0.07999028  0.00000000       0.010
   0.14316547 -0.08265662  0.00000000       0.010
   0.14778371 -0.08532297  0.00000000       0.010
   0.15240195 -0.08798931  0.00000000       0.010
   0.15702019 -0.09065565  0.00000000       0.010
   0.15702019 -0.09065565  0.00000000       0.010
   0.15855961 -0.08798931  0.00000000       0.010
   0.16009902 -0.08532297  0.00000000       0.010
   0.16163843 -0.08265662  0.00000000       0.010
   0.16317785 -0.07999028  0.00000000       0.010
   0.16471726 -0.07732394  0.00000000       0.010
   0.16625667 -0.07465759  0.00000000       0.010
   0.16779609 -0.07199125  0.00000000       0.010
   0.16933550 -0.06932491  0.00000000       0.010
   0.17087492 -0.06665857  0.00000000       0.010
   0.17241433 -0.06399222  0.00000000       0.010
   0.17395374 -0.06132588  0.00000000       0.010
   0.17549316 -0.05865954  0.00000000       0.010
   0.17703257 -0.05599320  0.00000000       0.010
   0.17857198 -0.05332685  0.00000000       0.010
   0.18011140 -0.05066051  0.00000000       0.010
   0.18165081 -0.04799417  0.00000000       0.010
   0.18319022 -0.04532783  0.00000000       0.010
   0.18472964 -0.04266148  0.00000000       0.010
   0.18626905 -0.03999514  0.00000000       0.010
   0.18780847 -0.03732880  0.00000000       0.010
   0.18934788 -0.03466245  0.00000000       0.010
   0.19088729 -0.03199611  0.00000000       0.010
   0.19242671 -0.02932977  0.00000000       0.010
   0.19396612 -0.02666343  0.00000000       0.010
   0.19550553 -0.02399708  0.00000000       0.010
   0.19704495 -0.02133074  0.00000000       0.010
   0.19858436 -0.01866440  0.00000000       0.010
   0.20012377 -0.01599806  0.00000000       0.010
   0.20166319 -0.01333171  0.00000000       0.010
   0.20320260 -0.01066537  0.00000000       0.010
   0.20474202 -0.00799903  0.00000000       0.010
   0.20628143 -0.00533269  0.00000000       0.010
   0.20782084 -0.00266634  0.00000000       0.010
   0.20936026 -0.00000000  0.00000000       0.010
   0.20936026 -0.00000000  0.00000000       0.010
   0.20320260 -0.00000000  0.00000000       0.010
   0.19704495  0.00000000  0.00000000       0.010
   0.19088729  0.00000000  0.00000000       0.010
   0.18472964 -0.00000000  0.00000000       0.010
   0.17857198  0.00000000  0.00000000       0.010
   0.17241433 -0.00000000  0.00000000       0.010
   0.16625667 -0.00000000  0.00000000       0.010
   0.16009902 -0.00000000  0.00000000       0.010
   0.15394137  0.00000000  0.00000000       0.010
   0.14778371 -0.00000000  0.00000000       0.010
   0.14162606  0.00000000  0.00000000       0.010
   0.13546840  0.00000000  0.00000000       0.010
   0.12931075 -0.00000000  0.00000000       0.010
   0.12315309 -0.00000000  0.00000000       0.010
   0.11699544  0.00000000  0.00000000       0.010
   0.11083778 -0.00000000  0.00000000       0.010
   0.10468013 -0.00000000  0.00000000       0.010
   0.09852247  0.00000000  0.00000000       0.010
   0.09236482 -0.00000000  0.00000000       0.010
   0.08620716 -0.00000000  0.00000000       0.010
   0.08004951 -0.00000000  0.00000000       0.010
   0.07389186 -0.00000000  0.00000000       0.010
   0.06773420  0.00000000  0.00000000       0.010
   0.06157655 -0.00000000  0.00000000       0.010
   0.05541889 -0.00000000  0.00000000       0.010
   0.04926124  0.00000000  0.00000000       0.010
   0.04310358  0.00000000  0.00000000       0.010
   0.03694593 -0.00000000  0.00000000       0.010
   0.03078827 -0.00000000  0.00000000       0.010
   0.02463062 -0.00000000  0.00000000       0.010
   0.01847296  0.00000000  0.00000000       0.010
   0.01231531  0.00000000  0.00000000       0.010
   0.00615765  0.00000000  0.00000000       0.010
   0.00000000  0.00000000  0.00000000       0.010

 k-points in reciprocal lattice and weights: Special k-points for band structure     
   0.00000000  0.00000000  0.00000000       0.010
   0.01470588  0.00000000  0.00000000       0.010
   0.02941176  0.00000000  0.00000000       0.010
   0.04411765  0.00000000  0.00000000       0.010
   0.05882353  0.00000000  0.00000000       0.010
   0.07352941  0.00000000  0.00000000       0.010
   0.08823529  0.00000000  0.00000000       0.010
   0.10294118  0.00000000  0.00000000       0.010
   0.11764706  0.00000000  0.00000000       0.010
   0.13235294  0.00000000  0.00000000       0.010
   0.14705882  0.00000000  0.00000000       0.010
   0.16176471  0.00000000  0.00000000       0.010
   0.17647059  0.00000000  0.00000000       0.010
   0.19117647  0.00000000  0.00000000       0.010
   0.20588235  0.00000000  0.00000000       0.010
   0.22058824  0.00000000  0.00000000       0.010
   0.23529412  0.00000000  0.00000000       0.010
   0.25000000  0.00000000  0.00000000       0.010
   0.26470588  0.00000000  0.00000000       0.010
   0.27941176  0.00000000  0.00000000       0.010
   0.29411765  0.00000000  0.00000000       0.010
   0.30882353  0.00000000  0.00000000       0.010
   0.32352941  0.00000000  0.00000000       0.010
   0.33823529  0.00000000  0.00000000       0.010
   0.35294118  0.00000000  0.00000000       0.010
   0.36764706  0.00000000  0.00000000       0.010
   0.38235294  0.00000000  0.00000000       0.010
   0.39705882  0.00000000  0.00000000       0.010
   0.41176471  0.00000000  0.00000000       0.010
   0.42647059  0.00000000  0.00000000       0.010
   0.44117647  0.00000000  0.00000000       0.010
   0.45588235  0.00000000  0.00000000       0.010
   0.47058824  0.00000000  0.00000000       0.010
   0.48529412  0.00000000  0.00000000       0.010
   0.50000000  0.00000000  0.00000000       0.010
   0.50000000  0.00000000  0.00000000       0.010
   0.49509804  0.00980392  0.00000000       0.010
   0.49019608  0.01960784  0.00000000       0.010
   0.48529412  0.02941176  0.00000000       0.010
   0.48039216  0.03921569  0.00000000       0.010
   0.47549020  0.04901961  0.00000000       0.010
   0.47058824  0.05882353  0.00000000       0.010
   0.46568627  0.06862745  0.00000000       0.010
   0.46078431  0.07843137  0.00000000       0.010
   0.45588235  0.08823529  0.00000000       0.010
   0.45098039  0.09803922  0.00000000       0.010
   0.44607843  0.10784314  0.00000000       0.010
   0.44117647  0.11764706  0.00000000       0.010
   0.43627451  0.12745098  0.00000000       0.010
   0.43137255  0.13725490  0.00000000       0.010
   0.42647059  0.14705882  0.00000000       0.010
   0.42156863  0.15686275  0.00000000       0.010
   0.41666667  0.16666667  0.00000000       0.010
   0.41176471  0.17647059  0.00000000       0.010
   0.40686275  0.18627451  0.00000000       0.010
   0.40196078  0.19607843  0.00000000       0.010
   0.39705882  0.20588235  0.00000000       0.010
   0.39215686  0.21568627  0.00000000       0.010
   0.38725490  0.22549020  0.00000000       0.010
   0.38235294  0.23529412  0.00000000       0.010
   0.37745098  0.24509804  0.00000000       0.010
   0.37254902  0.25490196  0.00000000       0.010
   0.36764706  0.26470588  0.00000000       0.010
   0.36274510  0.27450980  0.00000000       0.010
   0.35784314  0.28431373  0.00000000       0.010
   0.35294118  0.29411765  0.00000000       0.010
   0.34803922  0.30392157  0.00000000       0.010
   0.34313725  0.31372549  0.00000000       0.010
   0.33823529  0.32352941  0.00000000       0.010
   0.33333333  0.33333333  0.00000000       0.010
   0.33333333  0.33333333  0.00000000       0.010
   0.32352941  0.32352941  0.00000000       0.010
   0.31372549  0.31372549  0.00000000       0.010
   0.30392157  0.30392157  0.00000000       0.010
   0.29411765  0.29411765  0.00000000       0.010
   0.28431373  0.28431373  0.00000000       0.010
   0.27450980  0.27450980  0.00000000       0.010
   0.26470588  0.26470588  0.00000000       0.010
   0.25490196  0.25490196  0.00000000       0.010
   0.24509804  0.24509804  0.00000000       0.010
   0.23529412  0.23529412  0.00000000       0.010
   0.22549020  0.22549020  0.00000000       0.010
   0.21568627  0.21568627  0.00000000       0.010
   0.20588235  0.20588235  0.00000000       0.010
   0.19607843  0.19607843  0.00000000       0.010
   0.18627451  0.18627451  0.00000000       0.010
   0.17647059  0.17647059  0.00000000       0.010
   0.16666667  0.16666667  0.00000000       0.010
   0.15686275  0.15686275  0.00000000       0.010
   0.14705882  0.14705882  0.00000000       0.010
   0.13725490  0.13725490  0.00000000       0.010
   0.12745098  0.12745098  0.00000000       0.010
   0.11764706  0.11764706  0.00000000       0.010
   0.10784314  0.10784314  0.00000000       0.010
   0.09803922  0.09803922  0.00000000       0.010
   0.08823529  0.08823529  0.00000000       0.010
   0.07843137  0.07843137  0.00000000       0.010
   0.06862745  0.06862745  0.00000000       0.010
   0.05882353  0.05882353  0.00000000       0.010
   0.04901961  0.04901961  0.00000000       0.010
   0.03921569  0.03921569  0.00000000       0.010
   0.02941176  0.02941176  0.00000000       0.010
   0.01960784  0.01960784  0.00000000       0.010
   0.00980392  0.00980392  0.00000000       0.010
   0.00000000  0.00000000  0.00000000       0.010

 position of ions in fractional coordinates (direct lattice) 
   0.66666667  0.33333333  0.33310854
   0.33333333  0.66666667  0.66644188
   0.00000000  0.00000000  0.99977521
   0.33333333  0.66666667  0.08002471
   0.00000000  0.00000000  0.25286775
   0.00000000  0.00000000  0.41335804
   0.66666667  0.33333333  0.58620108
   0.66666667  0.33333333  0.74669137
   0.33333333  0.66666667  0.91953442

 position of ions in cartesian coordinates  (Angst):
   1.59215192 -0.91922934  6.47772708
   1.59215192  0.91922934 12.95982546
   0.00000000  0.00000000 19.44192383
   1.59215192  0.91922934  1.55618404
   0.00000000  0.00000000  4.91734089
   0.00000000  0.00000000  8.03828242
   1.59215192 -0.91922934 11.39943927
   1.59215192 -0.91922934 14.52038080
   1.59215192  0.91922934 17.88153765



--------------------------------------------------------------------------------------------------------


 k-point   1 :   0.0000 0.0000 0.0000  plane waves:    4313
 k-point   2 :   0.0147 0.0000 0.0000  plane waves:    4317
 k-point   3 :   0.0294 0.0000 0.0000  plane waves:    4314
 k-point   4 :   0.0441 0.0000 0.0000  plane waves:    4318
 k-point   5 :   0.0588 0.0000 0.0000  plane waves:    4314
 k-point   6 :   0.0735 0.0000 0.0000  plane waves:    4312
 k-point   7 :   0.0882 0.0000 0.0000  plane waves:    4314
 k-point   8 :   0.1029 0.0000 0.0000  plane waves:    4312
 k-point   9 :   0.1176 0.0000 0.0000  plane waves:    4310
 k-point  10 :   0.1324 0.0000 0.0000  plane waves:    4310
 k-point  11 :   0.1471 0.0000 0.0000  plane waves:    4308
 k-point  12 :   0.1618 0.0000 0.0000  plane waves:    4304
 k-point  13 :   0.1765 0.0000 0.0000  plane waves:    4306
 k-point  14 :   0.1912 0.0000 0.0000  plane waves:    4306
 k-point  15 :   0.2059 0.0000 0.0000  plane waves:    4318
 k-point  16 :   0.2206 0.0000 0.0000  plane waves:    4328
 k-point  17 :   0.2353 0.0000 0.0000  plane waves:    4332
 k-point  18 :   0.2500 0.0000 0.0000  plane waves:    4326
 k-point  19 :   0.2647 0.0000 0.0000  plane waves:    4332
 k-point  20 :   0.2794 0.0000 0.0000  plane waves:    4334
 k-point  21 :   0.2941 0.0000 0.0000  plane waves:    4340
 k-point  22 :   0.3088 0.0000 0.0000  plane waves:    4338
 k-point  23 :   0.3235 0.0000 0.0000  plane waves:    4334
 k-point  24 :   0.3382 0.0000 0.0000  plane waves:    4344
 k-point  25 :   0.3529 0.0000 0.0000  plane waves:    4336
 k-point  26 :   0.3676 0.0000 0.0000  plane waves:    4354
 k-point  27 :   0.3824 0.0000 0.0000  plane waves:    4368
 k-point  28 :   0.3971 0.0000 0.0000  plane waves:    4380
 k-point  29 :   0.4118 0.0000 0.0000  plane waves:    4376
 k-point  30 :   0.4265 0.0000 0.0000  plane waves:    4366
 k-point  31 :   0.4412 0.0000 0.0000  plane waves:    4370
 k-point  32 :   0.4559 0.0000 0.0000  plane waves:    4358
 k-point  33 :   0.4706 0.0000 0.0000  plane waves:    4346
 k-point  34 :   0.4853 0.0000 0.0000  plane waves:    4346
 k-point  35 :   0.5000 0.0000 0.0000  plane waves:    4356
 k-point  36 :   0.5000 0.0000 0.0000  plane waves:    4356
 k-point  37 :   0.4951 0.0098 0.0000  plane waves:    4346
 k-point  38 :   0.4902 0.0196 0.0000  plane waves:    4342
 k-point  39 :   0.4853 0.0294 0.0000  plane waves:    4342
 k-point  40 :   0.4804 0.0392 0.0000  plane waves:    4350
 k-point  41 :   0.4755 0.0490 0.0000  plane waves:    4358
 k-point  42 :   0.4706 0.0588 0.0000  plane waves:    4354
 k-point  43 :   0.4657 0.0686 0.0000  plane waves:    4350
 k-point  44 :   0.4608 0.0784 0.0000  plane waves:    4344
 k-point  45 :   0.4559 0.0882 0.0000  plane waves:    4336
 k-point  46 :   0.4510 0.0980 0.0000  plane waves:    4336
 k-point  47 :   0.4461 0.1078 0.0000  plane waves:    4342
 k-point  48 :   0.4412 0.1176 0.0000  plane waves:    4338
 k-point  49 :   0.4363 0.1275 0.0000  plane waves:    4334
 k-point  50 :   0.4314 0.1373 0.0000  plane waves:    4330
 k-point  51 :   0.4265 0.1471 0.0000  plane waves:    4326
 k-point  52 :   0.4216 0.1569 0.0000  plane waves:    4322
 k-point  53 :   0.4167 0.1667 0.0000  plane waves:    4314
 k-point  54 :   0.4118 0.1765 0.0000  plane waves:    4320
 k-point  55 :   0.4069 0.1863 0.0000  plane waves:    4320
 k-point  56 :   0.4020 0.1961 0.0000  plane waves:    4320
 k-point  57 :   0.3971 0.2059 0.0000  plane waves:    4316
 k-point  58 :   0.3922 0.2157 0.0000  plane waves:    4314
 k-point  59 :   0.3873 0.2255 0.0000  plane waves:    4316
 k-point  60 :   0.3824 0.2353 0.0000  plane waves:    4308
 k-point  61 :   0.3775 0.2451 0.0000  plane waves:    4320
 k-point  62 :   0.3725 0.2549 0.0000  plane waves:    4320
 k-point  63 :   0.3676 0.2647 0.0000  plane waves:    4322
 k-point  64 :   0.3627 0.2745 0.0000  plane waves:    4330
 k-point  65 :   0.3578 0.2843 0.0000  plane waves:    4330
 k-point  66 :   0.3529 0.2941 0.0000  plane waves:    4330
 k-point  67 :   0.3480 0.3039 0.0000  plane waves:    4326
 k-point  68 :   0.3431 0.3137 0.0000  plane waves:    4330
 k-point  69 :   0.3382 0.3235 0.0000  plane waves:    4328
 k-point  70 :   0.3333 0.3333 0.0000  plane waves:    4326
 k-point  71 :   0.3333 0.3333 0.0000  plane waves:    4326
 k-point  72 :   0.3235 0.3235 0.0000  plane waves:    4332
 k-point  73 :   0.3137 0.3137 0.0000  plane waves:    4332
 k-point  74 :   0.3039 0.3039 0.0000  plane waves:    4334
 k-point  75 :   0.2941 0.2941 0.0000  plane waves:    4320
 k-point  76 :   0.2843 0.2843 0.0000  plane waves:    4328
 k-point  77 :   0.2745 0.2745 0.0000  plane waves:    4326
 k-point  78 :   0.2647 0.2647 0.0000  plane waves:    4334
 k-point  79 :   0.2549 0.2549 0.0000  plane waves:    4350
 k-point  80 :   0.2451 0.2451 0.0000  plane waves:    4348
 k-point  81 :   0.2353 0.2353 0.0000  plane waves:    4356
 k-point  82 :   0.2255 0.2255 0.0000  plane waves:    4352
 k-point  83 :   0.2157 0.2157 0.0000  plane waves:    4350
 k-point  84 :   0.2059 0.2059 0.0000  plane waves:    4338
 k-point  85 :   0.1961 0.1961 0.0000  plane waves:    4332
 k-point  86 :   0.1863 0.1863 0.0000  plane waves:    4330
 k-point  87 :   0.1765 0.1765 0.0000  plane waves:    4328
 k-point  88 :   0.1667 0.1667 0.0000  plane waves:    4338
 k-point  89 :   0.1569 0.1569 0.0000  plane waves:    4334
 k-point  90 :   0.1471 0.1471 0.0000  plane waves:    4322
 k-point  91 :   0.1373 0.1373 0.0000  plane waves:    4328
 k-point  92 :   0.1275 0.1275 0.0000  plane waves:    4326
 k-point  93 :   0.1176 0.1176 0.0000  plane waves:    4318
 k-point  94 :   0.1078 0.1078 0.0000  plane waves:    4316
 k-point  95 :   0.0980 0.0980 0.0000  plane waves:    4314
 k-point  96 :   0.0882 0.0882 0.0000  plane waves:    4309
 k-point  97 :   0.0784 0.0784 0.0000  plane waves:    4309
 k-point  98 :   0.0686 0.0686 0.0000  plane waves:    4317
 k-point  99 :   0.0588 0.0588 0.0000  plane waves:    4311
 k-point 100 :   0.0490 0.0490 0.0000  plane waves:    4325
 k-point 101 :   0.0392 0.0392 0.0000  plane waves:    4317
 k-point 102 :   0.0294 0.0294 0.0000  plane waves:    4317
 k-point 103 :   0.0196 0.0196 0.0000  plane waves:    4315
 k-point 104 :   0.0098 0.0098 0.0000  plane waves:    4313
 k-point 105 :   0.0000 0.0000 0.0000  plane waves:    4313

 maximum and minimum number of plane-waves per node :      4380     4304

 maximum number of plane-waves:      4380
 maximum index in each direction: 
   IXMAX=    5   IYMAX=    5   IZMAX=   35
   IXMIN=   -6   IYMIN=   -6   IZMIN=  -35


 serial   3D FFT for wavefunctions
 parallel 3D FFT for charge:
    minimum data exchange during FFTs selected (reduces bandwidth)


 total amount of memory used by VASP MPI-rank0   494361. kBytes
=======================================================================

   base      :      30000. kBytes
   nonl-proj :     133081. kBytes
   fftplans  :      11528. kBytes
   grid      :      33343. kBytes
   one-center:        279. kBytes
   wavefun   :     286130. kBytes

     INWAV:  cpu time    0.0001: real time    0.0010
 Broyden mixing: mesh for mixing (old mesh)
   NGX = 11   NGY = 11   NGZ = 71
  (NGX  = 48   NGY  = 48   NGZ  =288)
  gives a total of   8591 points

 initial charge density was supplied:
 number of electron      54.0000003 magnetization      -0.0000020
 keeping initial charge density in first step


--------------------------------------------------------------------------------------------------------


 Maximum index for augmentation-charges        15133 (set IRDMAX)


--------------------------------------------------------------------------------------------------------


 First call to EWALD:  gamma=   0.319
 Maximum number of real-space cells 5x 5x 1
 Maximum number of reciprocal cells 2x 2x 8

    FEWALD:  cpu time    0.0008: real time    0.0008


--------------------------------------- Iteration      1(   1)  ---------------------------------------


    POTLOK:  cpu time    0.3023: real time    0.3044
    SETDIJ:  cpu time    0.0321: real time    0.0322
     EDDAV:  cpu time   26.9205: real time   27.1683
       DOS:  cpu time    0.0069: real time    0.0069
    --------------------------------------------
      LOOP:  cpu time   27.2618: real time   27.5120

 eigenvalue-minimisations  : 15984
 total energy-change (2. order) : 0.2800026E+03  (-0.2294304E+04)
 number of electron      54.0000003 magnetization      -0.0000020
 augmentation part       54.0000003 magnetization      -0.0000020

 Free energy of the ion-electron system (eV)
  ---------------------------------------------------
  alpha Z        PSCENC =       156.26454146
  Ewald energy   TEWEN  =     -2190.67382923
  -Hartree energ DENC   =      -437.64863728
  -exchange      EXHF   =         0.00000000
  -V(xc)+E(xc)   XCENC  =      -105.25851225
  PAW double counting   =      4845.35312647    -4617.99113912
  entropy T*S    EENTRO =        -0.00017470
  eigenvalues    EBANDS =       316.48337596
  atomic energy  EATOM  =      2313.47388723
  Solvation  Ediel_sol  =         0.00000000
  ---------------------------------------------------
  free energy    TOTEN  =       280.00263854 eV

  energy without entropy =      280.00281324  energy(sigma->0) =      280.00272589


--------------------------------------------------------------------------------------------------------




--------------------------------------- Iteration      1(   2)  ---------------------------------------


     EDDAV:  cpu time   31.6527: real time   31.9442
       DOS:  cpu time    0.0017: real time    0.0017
    --------------------------------------------
      LOOP:  cpu time   31.6544: real time   31.9459

 eigenvalue-minimisations  : 19942
 total energy-change (2. order) :-0.3193783E+03  (-0.3019406E+03)
 number of electron      54.0000003 magnetization      -0.0000020
 augmentation part       54.0000003 magnetization      -0.0000020

 Free energy of the ion-electron system (eV)
  ---------------------------------------------------
  alpha Z        PSCENC =       156.26454146
  Ewald energy   TEWEN  =     -2190.67382923
  -Hartree energ DENC   =      -437.64863728
  -exchange      EXHF   =         0.00000000
  -V(xc)+E(xc)   XCENC  =      -105.25851225
  PAW double counting   =      4845.35312647    -4617.99113912
  entropy T*S    EENTRO =        -0.00000000
  eigenvalues    EBANDS =        -2.89505762
  atomic energy  EATOM  =      2313.47388723
  Solvation  Ediel_sol  =         0.00000000
  ---------------------------------------------------
  free energy    TOTEN  =       -39.37562034 eV

  energy without entropy =      -39.37562034  energy(sigma->0) =      -39.37562034


--------------------------------------------------------------------------------------------------------




--------------------------------------- Iteration      1(   3)  ---------------------------------------


     EDDAV:  cpu time   30.9010: real time   31.1874
       DOS:  cpu time    0.0017: real time    0.0017
    --------------------------------------------
      LOOP:  cpu time   30.9027: real time   31.1891

 eigenvalue-minimisations  : 19454
 total energy-change (2. order) :-0.2424613E+02  (-0.2370557E+02)
 number of electron      54.0000003 magnetization      -0.0000020
 augmentation part       54.0000003 magnetization      -0.0000020

 Free energy of the ion-electron system (eV)
  ---------------------------------------------------
  alpha Z        PSCENC =       156.26454146
  Ewald energy   TEWEN  =     -2190.67382923
  -Hartree energ DENC   =      -437.64863728
  -exchange      EXHF   =         0.00000000
  -V(xc)+E(xc)   XCENC  =      -105.25851225
  PAW double counting   =      4845.35312647    -4617.99113912
  entropy T*S    EENTRO =        -0.00000000
  eigenvalues    EBANDS =       -27.14118588
  atomic energy  EATOM  =      2313.47388723
  Solvation  Ediel_sol  =         0.00000000
  ---------------------------------------------------
  free energy    TOTEN  =       -63.62174861 eV

  energy without entropy =      -63.62174861  energy(sigma->0) =      -63.62174861


--------------------------------------------------------------------------------------------------------




--------------------------------------- Iteration      1(   4)  ---------------------------------------


     EDDAV:  cpu time   33.0135: real time   33.3199
       DOS:  cpu time    0.0015: real time    0.0015
    --------------------------------------------
      LOOP:  cpu time   33.0150: real time   33.3215

 eigenvalue-minimisations  : 21194
 total energy-change (2. order) :-0.6954438E+00  (-0.6922710E+00)
 number of electron      54.0000003 magnetization      -0.0000020
 augmentation part       54.0000003 magnetization      -0.0000020

 Free energy of the ion-electron system (eV)
  ---------------------------------------------------
  alpha Z        PSCENC =       156.26454146
  Ewald energy   TEWEN  =     -2190.67382923
  -Hartree energ DENC   =      -437.64863728
  -exchange      EXHF   =         0.00000000
  -V(xc)+E(xc)   XCENC  =      -105.25851225
  PAW double counting   =      4845.35312647    -4617.99113912
  entropy T*S    EENTRO =        -0.00000000
  eigenvalues    EBANDS =       -27.83662971
  atomic energy  EATOM  =      2313.47388723
  Solvation  Ediel_sol  =         0.00000000
  ---------------------------------------------------
  free energy    TOTEN  =       -64.31719243 eV

  energy without entropy =      -64.31719243  energy(sigma->0) =      -64.31719243


--------------------------------------------------------------------------------------------------------




--------------------------------------- Iteration      1(   5)  ---------------------------------------


     EDDAV:  cpu time   32.4499: real time   32.7520
       DOS:  cpu time    0.0015: real time    0.0015
    CHARGE:  cpu time    2.5591: real time    2.5687
    MIXING:  cpu time    0.0030: real time    0.0030
    --------------------------------------------
      LOOP:  cpu time   35.0136: real time   35.3253

 eigenvalue-minimisations  : 20756
 total energy-change (2. order) :-0.1636309E-01  (-0.1634072E-01)
 number of electron      54.0000003 magnetization      -0.0000017
 augmentation part       -1.4719736 magnetization       0.0000697

 Broyden mixing:
  rms(total) = 0.11893E+00    rms(broyden)= 0.11893E+00
  rms(prec ) = 0.13744E+00
  weight for this iteration     100.00

 Free energy of the ion-electron system (eV)
  ---------------------------------------------------
  alpha Z        PSCENC =       156.26454146
  Ewald energy   TEWEN  =     -2190.67382923
  -Hartree energ DENC   =      -437.64863728
  -exchange      EXHF   =         0.00000000
  -V(xc)+E(xc)   XCENC  =      -105.25851225
  PAW double counting   =      4845.35312647    -4617.99113912
  entropy T*S    EENTRO =        -0.00000000
  eigenvalues    EBANDS =       -27.85299280
  atomic energy  EATOM  =      2313.47388723
  Solvation  Ediel_sol  =         0.00000000
  ---------------------------------------------------
  free energy    TOTEN  =       -64.33355552 eV

  energy without entropy =      -64.33355552  energy(sigma->0) =      -64.33355552


--------------------------------------------------------------------------------------------------------




--------------------------------------- Iteration      1(   6)  ---------------------------------------


    POTLOK:  cpu time    0.2957: real time    0.3012
    SETDIJ:  cpu time    0.0319: real time    0.0320
    EDDIAG:  cpu time    6.9070: real time    6.9724
  RMM-DIIS:  cpu time   22.4888: real time   22.5787
    ORTHCH:  cpu time    0.3722: real time    0.3898
       DOS:  cpu time    0.0015: real time    0.0015
    CHARGE:  cpu time    2.5573: real time    2.5675
    MIXING:  cpu time    0.0031: real time    0.0031
    --------------------------------------------
      LOOP:  cpu time   32.6576: real time   32.8462

 eigenvalue-minimisations  : 16638
 total energy-change (2. order) : 0.2434631E-01  (-0.1915050E-01)
 number of electron      54.0000003 magnetization      -0.0000015
 augmentation part       -1.6529522 magnetization       0.0000728

 Broyden mixing:
  rms(total) = 0.12905E+00    rms(broyden)= 0.12905E+00
  rms(prec ) = 0.13542E+00
  weight for this iteration     100.00

 eigenvalues of (default mixing * dielectric matrix)
  average eigenvalue GAMMA=   0.4538
  0.4538

 Free energy of the ion-electron system (eV)
  ---------------------------------------------------
  alpha Z        PSCENC =       156.26454146
  Ewald energy   TEWEN  =     -2190.67382923
  -Hartree energ DENC   =      -438.47658705
  -exchange      EXHF   =         0.00000000
  -V(xc)+E(xc)   XCENC  =      -105.45611306
  PAW double counting   =      4830.83623782    -4603.41048187
  entropy T*S    EENTRO =        -0.00000000
  eigenvalues    EBANDS =       -26.86686452
  atomic energy  EATOM  =      2313.47388723
  Solvation  Ediel_sol  =         0.00000000
  ---------------------------------------------------
  free energy    TOTEN  =       -64.30920922 eV

  energy without entropy =      -64.30920922  energy(sigma->0) =      -64.30920922


--------------------------------------------------------------------------------------------------------




--------------------------------------- Iteration      1(   7)  ---------------------------------------


    POTLOK:  cpu time    0.2958: real time    0.3011
    SETDIJ:  cpu time    0.0322: real time    0.0323
    EDDIAG:  cpu time    6.8874: real time    6.9526
  RMM-DIIS:  cpu time   23.3363: real time   23.4303
    ORTHCH:  cpu time    0.3718: real time    0.3896
       DOS:  cpu time    0.0015: real time    0.0015
    CHARGE:  cpu time    2.5517: real time    2.5614
    MIXING:  cpu time    0.0033: real time    0.0033
    --------------------------------------------
      LOOP:  cpu time   33.4801: real time   33.6722

 eigenvalue-minimisations  : 17444
 total energy-change (2. order) : 0.1157620E-01  (-0.1820382E-02)
 number of electron      54.0000003 magnetization      -0.0000012
 augmentation part       -1.6095674 magnetization       0.0000565

 Broyden mixing:
  rms(total) = 0.66420E-01    rms(broyden)= 0.66420E-01
  rms(prec ) = 0.68531E-01
  weight for this iteration     100.00

 eigenvalues of (default mixing * dielectric matrix)
  average eigenvalue GAMMA=   1.0814
  1.4655  0.6974

 Free energy of the ion-electron system (eV)
  ---------------------------------------------------
  alpha Z        PSCENC =       156.26454146
  Ewald energy   TEWEN  =     -2190.67382923
  -Hartree energ DENC   =      -438.17518603
  -exchange      EXHF   =         0.00000000
  -V(xc)+E(xc)   XCENC  =      -105.39855784
  PAW double counting   =      4824.66847613    -4597.23415188
  entropy T*S    EENTRO =        -0.00000000
  eigenvalues    EBANDS =       -27.22281286
  atomic energy  EATOM  =      2313.47388723
  Solvation  Ediel_sol  =         0.00000000
  ---------------------------------------------------
  free energy    TOTEN  =       -64.29763302 eV

  energy without entropy =      -64.29763302  energy(sigma->0) =      -64.29763302


--------------------------------------------------------------------------------------------------------




--------------------------------------- Iteration      1(   8)  ---------------------------------------


    POTLOK:  cpu time    0.2957: real time    0.3009
    SETDIJ:  cpu time    0.0318: real time    0.0320
    EDDIAG:  cpu time    6.9177: real time    6.9823
  RMM-DIIS:  cpu time   24.8393: real time   24.9400
    ORTHCH:  cpu time    0.3726: real time    0.3900
       DOS:  cpu time    0.0016: real time    0.0016
    CHARGE:  cpu time    2.5559: real time    2.5658
    MIXING:  cpu time    0.0034: real time    0.0034
    --------------------------------------------
      LOOP:  cpu time   35.0179: real time   35.2159

 eigenvalue-minimisations  : 18709
 total energy-change (2. order) : 0.2246251E-02  (-0.1042534E-02)
 number of electron      54.0000003 magnetization      -0.0000008
 augmentation part       -1.5808553 magnetization       0.0000303

 Broyden mixing:
  rms(total) = 0.16281E-01    rms(broyden)= 0.16281E-01
  rms(prec ) = 0.17307E-01
  weight for this iteration     100.00

 eigenvalues of (default mixing * dielectric matrix)
  average eigenvalue GAMMA=   1.3385
  2.5689  0.7233  0.7233

 Free energy of the ion-electron system (eV)
  ---------------------------------------------------
  alpha Z        PSCENC =       156.26454146
  Ewald energy   TEWEN  =     -2190.67382923
  -Hartree energ DENC   =      -437.86692737
  -exchange      EXHF   =         0.00000000
  -V(xc)+E(xc)   XCENC  =      -105.37103662
  PAW double counting   =      4790.00226550    -4562.54068270
  entropy T*S    EENTRO =        -0.00000000
  eigenvalues    EBANDS =       -27.58360504
  atomic energy  EATOM  =      2313.47388723
  Solvation  Ediel_sol  =         0.00000000
  ---------------------------------------------------
  free energy    TOTEN  =       -64.29538677 eV

  energy without entropy =      -64.29538677  energy(sigma->0) =      -64.29538677


--------------------------------------------------------------------------------------------------------




--------------------------------------- Iteration      1(   9)  ---------------------------------------


    POTLOK:  cpu time    0.2951: real time    0.3001
    SETDIJ:  cpu time    0.0320: real time    0.0321
    EDDIAG:  cpu time    6.9399: real time    7.0042
  RMM-DIIS:  cpu time   26.4278: real time   26.5364
    ORTHCH:  cpu time    0.3726: real time    0.3903
       DOS:  cpu time    0.0015: real time    0.0015
    CHARGE:  cpu time    2.5615: real time    2.5718
    MIXING:  cpu time    0.0034: real time    0.0034
    --------------------------------------------
      LOOP:  cpu time   36.6338: real time   36.8398

 eigenvalue-minimisations  : 20109
 total energy-change (2. order) : 0.5605486E-04  (-0.2557753E-03)
 number of electron      54.0000003 magnetization      -0.0000007
 augmentation part       -1.5882988 magnetization       0.0000216

 Broyden mixing:
  rms(total) = 0.11722E-01    rms(broyden)= 0.11722E-01
  rms(prec ) = 0.11919E-01
  weight for this iteration     100.00

 eigenvalues of (default mixing * dielectric matrix)
  average eigenvalue GAMMA=   1.2631
  2.2616  0.8819  0.9544  0.9544

 Free energy of the ion-electron system (eV)
  ---------------------------------------------------
  alpha Z        PSCENC =       156.26454146
  Ewald energy   TEWEN  =     -2190.67382923
  -Hartree energ DENC   =      -437.76235962
  -exchange      EXHF   =         0.00000000
  -V(xc)+E(xc)   XCENC  =      -105.38554665
  PAW double counting   =      4774.44217685    -4546.95846363
  entropy T*S    EENTRO =        -0.00000000
  eigenvalues    EBANDS =       -27.69573714
  atomic energy  EATOM  =      2313.47388723
  Solvation  Ediel_sol  =         0.00000000
  ---------------------------------------------------
  free energy    TOTEN  =       -64.29533071 eV

  energy without entropy =      -64.29533071  energy(sigma->0) =      -64.29533071


--------------------------------------------------------------------------------------------------------




--------------------------------------- Iteration      1(  10)  ---------------------------------------


    POTLOK:  cpu time    0.2958: real time    0.3010
    SETDIJ:  cpu time    0.0318: real time    0.0320
    EDDIAG:  cpu time    6.9290: real time    6.9939
  RMM-DIIS:  cpu time   27.6355: real time   27.7480
    ORTHCH:  cpu time    0.3708: real time    0.3884
       DOS:  cpu time    0.0020: real time    0.0020
    CHARGE:  cpu time    2.5493: real time    2.5593
    MIXING:  cpu time    0.0037: real time    0.0037
    --------------------------------------------
      LOOP:  cpu time   37.8179: real time   38.0283

 eigenvalue-minimisations  : 21056
 total energy-change (2. order) :-0.8027236E-05  (-0.4588731E-04)
 number of electron      54.0000003 magnetization      -0.0000005
 augmentation part       -1.5884168 magnetization       0.0000040

 Broyden mixing:
  rms(total) = 0.41685E-02    rms(broyden)= 0.41685E-02
  rms(prec ) = 0.44326E-02
  weight for this iteration     100.00

 eigenvalues of (default mixing * dielectric matrix)
  average eigenvalue GAMMA=   1.3737
  2.1981  2.1981  0.7686  0.7686  0.9349

 Free energy of the ion-electron system (eV)
  ---------------------------------------------------
  alpha Z        PSCENC =       156.26454146
  Ewald energy   TEWEN  =     -2190.67382923
  -Hartree energ DENC   =      -437.74339662
  -exchange      EXHF   =         0.00000000
  -V(xc)+E(xc)   XCENC  =      -105.38693698
  PAW double counting   =      4782.40654115    -4554.92385541
  entropy T*S    EENTRO =        -0.00000000
  eigenvalues    EBANDS =       -27.71229035
  atomic energy  EATOM  =      2313.47388723
  Solvation  Ediel_sol  =         0.00000000
  ---------------------------------------------------
  free energy    TOTEN  =       -64.29533874 eV

  energy without entropy =      -64.29533874  energy(sigma->0) =      -64.29533874


--------------------------------------------------------------------------------------------------------




--------------------------------------- Iteration      1(  11)  ---------------------------------------


    POTLOK:  cpu time    0.2953: real time    0.3001
    SETDIJ:  cpu time    0.0319: real time    0.0320
    EDDIAG:  cpu time    6.9472: real time    7.0126
  RMM-DIIS:  cpu time   27.2481: real time   27.3584
    ORTHCH:  cpu time    0.3711: real time    0.3891
       DOS:  cpu time    0.0015: real time    0.0015
    CHARGE:  cpu time    2.5513: real time    2.5618
    MIXING:  cpu time    0.0040: real time    0.0041
    --------------------------------------------
      LOOP:  cpu time   37.4504: real time   37.6596

 eigenvalue-minimisations  : 20757
 total energy-change (2. order) :-0.8851923E-05  (-0.2237924E-04)
 number of electron      54.0000003 magnetization      -0.0000004
 augmentation part       -1.5919587 magnetization      -0.0000011

 Broyden mixing:
  rms(total) = 0.24043E-02    rms(broyden)= 0.24043E-02
  rms(prec ) = 0.25500E-02
  weight for this iteration     100.00

 eigenvalues of (default mixing * dielectric matrix)
  average eigenvalue GAMMA=   1.4248
  2.6735  2.6735  0.8965  0.8965  0.7953  0.6137

 Free energy of the ion-electron system (eV)
  ---------------------------------------------------
  alpha Z        PSCENC =       156.26454146
  Ewald energy   TEWEN  =     -2190.67382923
  -Hartree energ DENC   =      -437.72092956
  -exchange      EXHF   =         0.00000000
  -V(xc)+E(xc)   XCENC  =      -105.39230364
  PAW double counting   =      4787.81412514    -4560.33130478
  entropy T*S    EENTRO =        -0.00000000
  eigenvalues    EBANDS =       -27.72953421
  atomic energy  EATOM  =      2313.47388723
  Solvation  Ediel_sol  =         0.00000000
  ---------------------------------------------------
  free energy    TOTEN  =       -64.29534759 eV

  energy without entropy =      -64.29534759  energy(sigma->0) =      -64.29534759


--------------------------------------------------------------------------------------------------------




--------------------------------------- Iteration      1(  12)  ---------------------------------------


    POTLOK:  cpu time    0.2969: real time    0.3018
    SETDIJ:  cpu time    0.0319: real time    0.0320
    EDDIAG:  cpu time    6.9697: real time    7.0347
  RMM-DIIS:  cpu time   29.9081: real time   30.0298
    ORTHCH:  cpu time    0.3718: real time    0.3897
       DOS:  cpu time    0.0015: real time    0.0015
    CHARGE:  cpu time    2.5520: real time    2.5617
    MIXING:  cpu time    0.0044: real time    0.0044
    --------------------------------------------
      LOOP:  cpu time   40.1363: real time   40.3556

 eigenvalue-minimisations  : 23060
 total energy-change (2. order) :-0.2097666E-05  (-0.4587829E-05)
 number of electron      54.0000003 magnetization      -0.0000003
 augmentation part       -1.5918550 magnetization       0.0000005

 Broyden mixing:
  rms(total) = 0.25891E-02    rms(broyden)= 0.25891E-02
  rms(prec ) = 0.26930E-02
  weight for this iteration     100.00

 eigenvalues of (default mixing * dielectric matrix)
  average eigenvalue GAMMA=   1.3234
  2.6947  2.6947  0.9646  0.9646  0.6395  0.6395  0.6662

 Free energy of the ion-electron system (eV)
  ---------------------------------------------------
  alpha Z        PSCENC =       156.26454146
  Ewald energy   TEWEN  =     -2190.67382923
  -Hartree energ DENC   =      -437.70607543
  -exchange      EXHF   =         0.00000000
  -V(xc)+E(xc)   XCENC  =      -105.39258610
  PAW double counting   =      4787.30670051    -4559.82331522
  entropy T*S    EENTRO =        -0.00000000
  eigenvalues    EBANDS =       -27.74467292
  atomic energy  EATOM  =      2313.47388723
  Solvation  Ediel_sol  =         0.00000000
  ---------------------------------------------------
  free energy    TOTEN  =       -64.29534969 eV

  energy without entropy =      -64.29534969  energy(sigma->0) =      -64.29534969


--------------------------------------------------------------------------------------------------------




--------------------------------------- Iteration      1(  13)  ---------------------------------------


    POTLOK:  cpu time    0.2953: real time    0.3010
    SETDIJ:  cpu time    0.0319: real time    0.0320
    EDDIAG:  cpu time    6.8996: real time    6.9635
  RMM-DIIS:  cpu time   29.9057: real time   30.0282
    ORTHCH:  cpu time    0.3718: real time    0.3892
       DOS:  cpu time    0.0015: real time    0.0016
    CHARGE:  cpu time    2.5514: real time    2.5611
    MIXING:  cpu time    0.0041: real time    0.0041
    --------------------------------------------
      LOOP:  cpu time   40.0612: real time   40.2806

 eigenvalue-minimisations  : 23066
 total energy-change (2. order) : 0.1812348E-05  (-0.6805849E-06)
 number of electron      54.0000003 magnetization      -0.0000002
 augmentation part       -1.5916288 magnetization      -0.0000005

 Broyden mixing:
  rms(total) = 0.19253E-02    rms(broyden)= 0.19253E-02
  rms(prec ) = 0.19991E-02
  weight for this iteration     100.00

 eigenvalues of (default mixing * dielectric matrix)
  average eigenvalue GAMMA=   1.5061
  3.6645  2.3623  1.4722  1.4722  0.8711  0.7856  0.7856  0.6353

 Free energy of the ion-electron system (eV)
  ---------------------------------------------------
  alpha Z        PSCENC =       156.26454146
  Ewald energy   TEWEN  =     -2190.67382923
  -Hartree energ DENC   =      -437.70022152
  -exchange      EXHF   =         0.00000000
  -V(xc)+E(xc)   XCENC  =      -105.39252278
  PAW double counting   =      4786.42513769    -4558.94161327
  entropy T*S    EENTRO =        -0.00000000
  eigenvalues    EBANDS =       -27.75072745
  atomic energy  EATOM  =      2313.47388723
  Solvation  Ediel_sol  =         0.00000000
  ---------------------------------------------------
  free energy    TOTEN  =       -64.29534788 eV

  energy without entropy =      -64.29534788  energy(sigma->0) =      -64.29534788


--------------------------------------------------------------------------------------------------------




--------------------------------------- Iteration      1(  14)  ---------------------------------------


    POTLOK:  cpu time    0.2949: real time    0.3002
    SETDIJ:  cpu time    0.0319: real time    0.0320
    EDDIAG:  cpu time    6.9100: real time    6.9740
  RMM-DIIS:  cpu time   26.5112: real time   26.6170
    ORTHCH:  cpu time    0.3717: real time    0.3893
       DOS:  cpu time    0.0015: real time    0.0015
    CHARGE:  cpu time    2.5506: real time    2.5604
    MIXING:  cpu time    0.0041: real time    0.0041
[...]
      8      -0.9620      1.00000
      9      -0.9618      1.00000
     10       1.9080      1.00000
     11       1.9082      1.00000
     12       1.9139      1.00000
     13       1.9227      1.00000
     14       1.9229      1.00000
     15       1.9286      1.00000
     16       2.3148      1.00000
     17       2.3150      1.00000
     18       2.9813      1.00000
     19       3.0015      1.00000
     20       3.0123      1.00000
     21       3.0125      1.00000
     22       3.0309      1.00000
     23       3.0311      1.00000
     24       3.6567      1.00000
     25       4.1638      1.00000
     26       4.9272      1.00000
     27       4.9273      1.00000
     28       7.2451      0.00000
     29       7.2553      0.00000
     30       7.2749      0.00000
     31       7.2785      0.00000
     32       7.2902      0.00000
     33       7.2923      0.00000
     34       7.4766      0.00000
     35       7.4831      0.00000
     36       7.4881      0.00000
     37       7.4969      0.00000
     38       7.5265      0.00000

 k-point   105 :       0.0000    0.0000    0.0000
  band No.  band energies     occupation 
      1      -9.6900      1.00000
      2      -9.5907      1.00000
      3      -9.5905      1.00000
      4      -8.4645      1.00000
      5      -8.4644      1.00000
      6      -8.2959      1.00000
      7      -1.4300      1.00000
      8      -0.9668      1.00000
      9      -0.9666      1.00000
     10       1.9183      1.00000
     11       1.9183      1.00000
     12       1.9185      1.00000
     13       1.9185      1.00000
     14       1.9241      1.00000
     15       1.9241      1.00000
     16       2.3318      1.00000
     17       2.3319      1.00000
     18       3.0089      1.00000
     19       3.0089      1.00000
     20       3.0197      1.00000
     21       3.0197      1.00000
     22       3.0199      1.00000
     23       3.0199      1.00000
     24       3.6375      1.00000
     25       4.1637      1.00000
     26       4.9320      1.00000
     27       4.9322      1.00000
     28       7.2470      0.00000
     29       7.2492      0.00000
     30       7.2819      0.00000
     31       7.2820      0.00000
     32       7.2821      0.00000
     33       7.2967      0.00000
     34       7.4892      0.00000
     35       7.4893      0.00000
     36       7.4894      0.00000
     37       7.5011      0.00000
     38       7.5382      0.00000


--------------------------------------------------------------------------------------------------------


 soft charge-density along one line, spin component           1
         0         1         2         3         4         5         6         7         8         9
 total charge-density along one line

 soft charge-density along one line, spin component           2
         0         1         2         3         4         5         6         7         8         9
 total charge-density along one line

 pseudopotential strength for first ion, spin component:           1
 -7.814   0.000   0.000  -0.000   0.000  -8.030   0.000   0.000
  0.000  -7.821   0.000  -0.000  -0.000   0.000  -8.037   0.000
  0.000   0.000  -7.802   0.000  -0.000   0.000   0.000  -8.018
 -0.000  -0.000   0.000  -7.821   0.000  -0.000  -0.000   0.000
  0.000  -0.000  -0.000   0.000  -7.814   0.000  -0.000  -0.000
 -8.030   0.000   0.000  -0.000   0.000  -8.236   0.000   0.000
  0.000  -8.037   0.000  -0.000  -0.000   0.000  -8.242   0.000
  0.000   0.000  -8.018   0.000  -0.000   0.000   0.000  -8.224
 -0.000  -0.000   0.000  -8.037   0.000  -0.000  -0.000   0.000
  0.000  -0.000  -0.000   0.000  -8.030   0.000  -0.000  -0.000
  0.000  -0.000  -0.002  -0.000  -0.000   0.000  -0.000  -0.002
  0.000  -0.000  -0.004  -0.000  -0.000   0.000  -0.000  -0.004
 -0.000   0.000   0.000   0.000   0.006  -0.000   0.000   0.000
  0.000   0.000   0.000  -0.000  -0.000   0.000   0.000   0.000
  0.006   0.000   0.000   0.000  -0.000   0.006   0.000   0.000
 -0.000   0.000   0.000   0.000   0.007  -0.000   0.000   0.000
  0.000   0.000   0.000  -0.000  -0.000   0.000   0.000   0.000
  0.007   0.000   0.000   0.000  -0.000   0.007   0.000   0.000
 pseudopotential strength for first ion, spin component:           2
 -7.814   0.000   0.000  -0.000   0.000  -8.030   0.000   0.000
  0.000  -7.821   0.000  -0.000  -0.000   0.000  -8.037   0.000
  0.000   0.000  -7.802   0.000  -0.000   0.000   0.000  -8.018
 -0.000  -0.000   0.000  -7.821   0.000  -0.000  -0.000   0.000
  0.000  -0.000  -0.000   0.000  -7.814   0.000  -0.000  -0.000
 -8.030   0.000   0.000  -0.000   0.000  -8.236   0.000   0.000
  0.000  -8.037   0.000  -0.000  -0.000   0.000  -8.242   0.000
  0.000   0.000  -8.018   0.000  -0.000   0.000   0.000  -8.224
 -0.000  -0.000   0.000  -8.037   0.000  -0.000  -0.000   0.000
  0.000  -0.000  -0.000   0.000  -8.030   0.000  -0.000  -0.000
  0.000  -0.000  -0.002  -0.000  -0.000   0.000  -0.000  -0.002
  0.000  -0.000  -0.004  -0.000  -0.000   0.000  -0.000  -0.004
 -0.000   0.000   0.000   0.000   0.006  -0.000   0.000   0.000
  0.000   0.000   0.000  -0.000  -0.000   0.000   0.000   0.000
  0.006   0.000   0.000   0.000  -0.000   0.006   0.000   0.000
 -0.000   0.000   0.000   0.000   0.007  -0.000   0.000   0.000
  0.000   0.000   0.000  -0.000  -0.000   0.000   0.000   0.000
  0.007   0.000   0.000   0.000  -0.000   0.007   0.000   0.000
 total augmentation occupancy for first ion, spin component:           1
  2.843   0.000   0.000  -0.000   0.000  -3.519  -0.000  -0.000   0.000   0.000  -0.000   0.000   0.000  -0.000  -0.420  -0.000
  0.000   4.536  -0.000  -0.000  -0.000  -0.000  -5.782   0.000   0.000   0.000  -0.000  -0.000   0.000  -0.000   0.000  -0.000
  0.000  -0.000   2.295  -0.000   0.000  -0.000  -0.000  -2.589  -0.000  -0.000  -0.007   0.014  -0.000  -0.001  -0.000   0.000
 -0.000  -0.000   0.000   4.536  -0.000   0.000   0.000  -0.000  -5.782   0.000   0.000   0.000  -0.000  -0.000   0.000   0.000
 -0.000  -0.000   0.000  -0.000   2.843  -0.000   0.000  -0.000  -0.000  -3.519   0.000   0.000  -0.420  -0.000  -0.000   0.059
 -3.519  -0.000  -0.000   0.000  -0.000   5.111   0.000   0.000  -0.000   0.000  -0.000   0.000  -0.000   0.000   0.486   0.000
 -0.000  -5.782   0.000   0.000   0.000   0.000   7.850  -0.000  -0.000  -0.000  -0.000   0.000  -0.000   0.000   0.000   0.000
 -0.000   0.000  -2.589   0.000  -0.000   0.000  -0.000   3.853  -0.000   0.000   0.153  -0.018   0.000   0.000   0.000  -0.000
  0.000   0.000   0.000  -5.782  -0.000  -0.000  -0.000  -0.000   7.850  -0.000  -0.000   0.000   0.000   0.000  -0.000  -0.000
  0.000   0.000  -0.000   0.000  -3.519   0.000  -0.000   0.000  -0.000   5.111  -0.000  -0.000   0.486   0.000   0.000  -0.065
 -0.000   0.000  -0.007   0.000   0.000  -0.000   0.000   0.153  -0.000  -0.000   1.729  -0.125   0.000  -0.000   0.000  -0.000
  0.000  -0.000   0.014   0.000   0.000  -0.000   0.000  -0.018  -0.000  -0.000  -0.125   0.011   0.000   0.000   0.000  -0.000
  0.000   0.000  -0.000  -0.000  -0.420  -0.000  -0.000   0.000   0.000   0.486   0.000  -0.000   0.337  -0.000  -0.000  -0.042
 -0.000  -0.000  -0.001   0.000  -0.000   0.000   0.000   0.000   0.000   0.000  -0.000   0.000  -0.000   0.420  -0.000   0.000
 -0.420  -0.000  -0.000   0.000  -0.000   0.486   0.000   0.000  -0.000   0.000  -0.000   0.000  -0.000   0.000   0.337   0.000
 -0.000  -0.000   0.000   0.000   0.059   0.000   0.000  -0.000  -0.000  -0.065  -0.000  -0.000  -0.042   0.000   0.000   0.005
  0.000  -0.000   0.000  -0.000   0.000   0.000   0.000  -0.000  -0.000   0.000   0.000  -0.000   0.000  -0.052   0.000  -0.000
  0.059   0.000   0.000  -0.000   0.000  -0.065  -0.000  -0.000   0.000  -0.000  -0.000  -0.000   0.000   0.000  -0.042  -0.000
 total augmentation occupancy for first ion, spin component:           2
 -0.000   0.000  -0.000  -0.000  -0.000   0.000  -0.000   0.000   0.000   0.000   0.000   0.000  -0.000  -0.000   0.000   0.000
 -0.000   0.000  -0.000  -0.000  -0.000  -0.000  -0.000   0.000   0.000   0.000   0.000  -0.000   0.000  -0.000  -0.000  -0.000
 -0.000  -0.000  -0.000  -0.000  -0.000   0.000   0.000   0.000   0.000   0.000  -0.000   0.000   0.000  -0.000   0.000  -0.000
 -0.000  -0.000   0.000   0.000  -0.000   0.000   0.000   0.000  -0.000   0.000  -0.000  -0.000  -0.000  -0.000   0.000   0.000
  0.000  -0.000  -0.000   0.000  -0.000   0.000   0.000   0.000   0.000   0.000  -0.000   0.000   0.000  -0.000   0.000  -0.000
  0.000  -0.000   0.000   0.000   0.000  -0.000   0.000  -0.000  -0.000  -0.000   0.000  -0.000   0.000  -0.000  -0.000  -0.000
  0.000  -0.000   0.000   0.000   0.000   0.000   0.000  -0.000  -0.000  -0.000  -0.000   0.000  -0.000   0.000  -0.000   0.000
  0.000   0.000   0.000   0.000   0.000  -0.000  -0.000  -0.000   0.000  -0.000   0.000  -0.000  -0.000   0.000  -0.000   0.000
  0.000   0.000  -0.000  -0.000  -0.000  -0.000  -0.000  -0.000   0.000   0.000  -0.000  -0.000  -0.000   0.000  -0.000  -0.000
 -0.000   0.000   0.000   0.000   0.000   0.000  -0.000  -0.000   0.000  -0.000   0.000  -0.000  -0.000   0.000  -0.000   0.000
  0.000   0.000  -0.000  -0.000   0.000   0.000  -0.000   0.000  -0.000   0.000  -0.000   0.000  -0.000   0.000   0.000  -0.000
  0.000  -0.000   0.000  -0.000   0.000  -0.000   0.000  -0.000   0.000  -0.000   0.000  -0.000   0.000   0.000  -0.000  -0.000
 -0.000   0.000   0.000  -0.000   0.000   0.000  -0.000  -0.000   0.000  -0.000   0.000   0.000  -0.000   0.000   0.000   0.000
  0.000  -0.000  -0.000  -0.000  -0.000  -0.000   0.000   0.000   0.000   0.000   0.000   0.000  -0.000  -0.000   0.000  -0.000
  0.000  -0.000   0.000   0.000   0.000  -0.000  -0.000  -0.000  -0.000  -0.000  -0.000  -0.000   0.000   0.000  -0.000  -0.000
  0.000  -0.000  -0.000  -0.000  -0.000  -0.000   0.000   0.000  -0.000   0.000  -0.000   0.000   0.000   0.000  -0.000   0.000
 -0.000   0.000   0.000  -0.000   0.000  -0.000   0.000  -0.000   0.000  -0.000  -0.000   0.000   0.000   0.000   0.000   0.000
 -0.000   0.000  -0.000  -0.000  -0.000   0.000   0.000   0.000   0.000   0.000   0.000   0.000  -0.000   0.000   0.000   0.000


------------------------ aborting loop because EDIFF is reached ----------------------------------------





 total charge

# of ion       s       p       d       tot
------------------------------------------
    1        0.410   0.582   4.440   5.431
    2        0.410   0.582   4.440   5.431
    3        0.410   0.582   4.440   5.431
    4        1.358   2.333   0.000   3.691
    5        1.358   2.333   0.000   3.691
    6        1.358   2.333   0.000   3.691
    7        1.358   2.333   0.000   3.691
    8        1.358   2.333   0.000   3.691
    9        1.358   2.333   0.000   3.691
--------------------------------------------------
tot          9.379  15.742  13.320  38.440



 magnetization (x)

# of ion       s       p       d       tot
------------------------------------------
    1        0.000  -0.000   0.000   0.000
    2        0.000  -0.000   0.000   0.000
    3        0.000  -0.000   0.000   0.000
    4       -0.000  -0.000   0.000  -0.000
    5       -0.000  -0.000   0.000  -0.000
    6       -0.000  -0.000   0.000  -0.000
    7       -0.000  -0.000   0.000  -0.000
    8       -0.000  -0.000   0.000  -0.000
    9       -0.000  -0.000   0.000  -0.000
--------------------------------------------------
tot          0.000  -0.000   0.000   0.000

    CHARGE:  cpu time    2.5484: real time    2.5577
    FORLOC:  cpu time    0.0103: real time    0.0103
    FORNL :  cpu time    9.1459: real time    9.1794
    STRESS:  cpu time    8.6019: real time    8.6356
    FORCOR:  cpu time    0.3012: real time    0.3025
    FORHAR:  cpu time    0.0365: real time    0.0366
    MIXING:  cpu time    0.0049: real time    0.0050
    OFIELD:  cpu time    0.0000: real time    0.0000

 ---------------------------------------------------------------------------------------------

         DFTD3 V3.0 Rev 1        
 IVDW         = 12
 DF pbe       
 parameters
 VDW_S6       =    1.0000
 VDW_S8       =    0.7875
 VDW_A1       =    0.4289
 VDW_A2       =    4.4407
 k1-k3        =   16.0000    1.3333   -4.0000
 VDW_RADIUS   =   50.2022 A
 VDW_CNRADIUS =   21.1671 A
 Edisp (eV)   -3.58710

 E6    (eV) :    -2.1385
 E8    (eV) :    -1.4486
 % E8        : 40.38
    FORVDW:  cpu time    0.0213: real time    0.0213

  FORCE on cell =-STRESS in cart. coord.  units (eV):
  Direction    XX          YY          ZZ          XY          YZ          ZX
  --------------------------------------------------------------------------------------
  Alpha Z   156.26454   156.26454   156.26454
  Ewald    -483.65109  -483.65109 -1223.37386    -0.00000    -0.00000    -0.00000
  Hartree   324.34004   324.34004  -210.98268    -0.00000    -0.00000    -0.00000
  E(xc)    -211.48719  -211.48719  -212.88917    -0.00000     0.00000     0.00000
  Local    -799.04077  -799.04069   453.67487     0.00000    -0.00000     0.00000
  n-local   375.24786   376.61830   393.21497    -0.14897    -0.07508     0.06804
  augment   -75.83757   -75.83766   -80.33591    -0.00000     0.00000     0.00000
  Kinetic   699.59136   726.03653   728.04562    15.68697     0.23549    -0.28755
  Fock        0.00000     0.00000     0.00000     0.00000     0.00000     0.00000
  vdW        -3.69876    -3.69876    -3.51963    -0.00000    -0.00000    -0.00000
  -------------------------------------------------------------------------------------
  Total      -4.36378    -4.36378     0.09876     0.00000     0.00000     0.00000
  in kB     -40.94276   -40.94276     0.92660     0.00000     0.00000     0.00000
  external pressure =      -26.99 kB  Pullay stress =        0.00 kB


 VOLUME and BASIS-vectors are now :
 -----------------------------------------------------------------------------
  energy-cutoff  :      500.00
  volume of cell :      170.76
      direct lattice vectors                 reciprocal lattice vectors
     1.592151915 -2.757688011  0.000000000     0.314040385 -0.181311301  0.000000000
     1.592151915  2.757688011  0.000000000     0.314040385  0.181311301 -0.000000000
     0.000000000  0.000000000 19.446295139    -0.000000000  0.000000000  0.051423677

  length of vectors
     3.184303831  3.184303831 19.446295139     0.362622601  0.362622601  0.051423677


 FORCES acting on ions
    electron-ion (+dipol)            ewald-force                    non-local-force                 convergence-correction
 -----------------------------------------------------------------------------------------------
   -.137E-08 -.434E-07 0.317E-01   -.181E-13 -.308E-11 -.357E-01   -.587E-17 -.345E-16 0.211E-02   -.642E-14 -.124E-08 -.394E-03
   -.137E-08 -.434E-07 0.317E-01   0.178E-13 0.152E-11 -.357E-01   -.103E-16 -.779E-18 0.211E-02   -.584E-14 -.463E-08 0.162E-03
   -.137E-08 -.434E-07 0.317E-01   -.786E-14 -.313E-11 -.357E-01   0.170E-17 -.302E-17 0.211E-02   -.226E-14 0.505E-08 0.224E-03
   -.722E-07 -.218E-08 -.176E+03   0.227E-14 0.162E-11 0.180E+03   -.270E-17 0.232E-16 -.398E+01   -.207E-14 -.184E-08 0.154E-02
   0.384E-07 -.796E-08 0.176E+03   0.157E-13 0.149E-11 -.180E+03   -.207E-16 -.788E-18 0.401E+01   -.414E-15 -.384E-09 -.205E-02
   -.722E-07 -.218E-08 -.176E+03   -.222E-14 0.158E-11 0.180E+03   -.250E-16 0.526E-16 -.398E+01   0.332E-14 -.208E-08 0.137E-02
   0.384E-07 -.797E-08 0.176E+03   -.234E-14 -.797E-12 -.180E+03   -.627E-17 -.568E-17 0.401E+01   -.294E-14 0.639E-08 -.154E-02
   -.722E-07 -.219E-08 -.176E+03   -.243E-13 -.780E-12 0.180E+03   -.978E-17 -.959E-17 -.398E+01   -.814E-15 0.707E-08 0.188E-02
   0.384E-07 -.795E-08 0.176E+03   0.745E-14 0.157E-11 -.180E+03   -.417E-17 0.740E-17 0.401E+01   -.261E-14 -.278E-08 -.121E-02
 -----------------------------------------------------------------------------------------------
   -.105E-06 -.161E-06 -.806E-01   -.116E-13 0.460E-14 0.142E-12   -.832E-16 0.288E-16 0.805E-01   -.200E-13 0.555E-08 -.996E-05


 POSITION                                       TOTAL-FORCE (eV/Angst)
 -----------------------------------------------------------------------------------
      1.59215     -0.91923      6.47773        -0.000000      0.000000     -0.002082
      1.59215      0.91923     12.95983        -0.000000     -0.000000     -0.002082
      0.00000      0.00000     19.44192        -0.000000     -0.000000     -0.002082
      1.59215      0.91923      1.55618        -0.000000     -0.000000      0.133806
      0.00000      0.00000      4.91734         0.000000      0.000000     -0.131725
      0.00000      0.00000      8.03828         0.000000      0.000000      0.133806
      1.59215     -0.91923     11.39944        -0.000000      0.000000     -0.131725
      1.59215     -0.91923     14.52038        -0.000000     -0.000000      0.133806
      1.59215      0.91923     17.88154        -0.000000      0.000000     -0.131725
 -----------------------------------------------------------------------------------
    total drift:                               -0.000000     -0.000000     -0.000179


--------------------------------------------------------------------------------------------------------



  FREE ENERGIE OF THE ION-ELECTRON SYSTEM (eV)
  ---------------------------------------------------
  free  energy   TOTEN  =       -67.88244302 eV

  energy  without entropy=      -67.88244302  energy(sigma->0) =      -67.88244302



--------------------------------------------------------------------------------------------------------


    POTLOK:  cpu time    0.3252: real time    0.3267


--------------------------------------------------------------------------------------------------------


 writing wavefunctions
     LOOP+:  cpu time  577.7957: real time  584.9677
    4ORBIT:  cpu time    0.0000: real time    0.0000



 total charge

# of ion       s       p       d       tot
------------------------------------------
    1        0.410   0.582   4.440   5.431
    2        0.410   0.582   4.440   5.431
    3        0.410   0.582   4.440   5.431
    4        1.358   2.333   0.000   3.691
    5        1.358   2.333   0.000   3.691
    6        1.358   2.333   0.000   3.691
    7        1.358   2.333   0.000   3.691
    8        1.358   2.333   0.000   3.691
    9        1.358   2.333   0.000   3.691
--------------------------------------------------
tot          9.379  15.742  13.320  38.440



 magnetization (x)

# of ion       s       p       d       tot
------------------------------------------
    1        0.000  -0.000   0.000   0.000
    2        0.000  -0.000   0.000   0.000
    3        0.000  -0.000   0.000   0.000
    4       -0.000  -0.000   0.000  -0.000
    5       -0.000  -0.000   0.000  -0.000
    6       -0.000  -0.000   0.000  -0.000
    7       -0.000  -0.000   0.000  -0.000
    8       -0.000  -0.000   0.000  -0.000
    9       -0.000  -0.000   0.000  -0.000
--------------------------------------------------
tot          0.000  -0.000   0.000   0.000


 total amount of memory used by VASP MPI-rank0   494361. kBytes
=======================================================================

   base      :      30000. kBytes
   nonl-proj :     133081. kBytes
   fftplans  :      11528. kBytes
   grid      :      33343. kBytes
   one-center:        279. kBytes
   wavefun   :     286130. kBytes

  
  
 General timing and accounting informations for this job:
 ========================================================
  
                  Total CPU time used (sec):      584.141
                            User time (sec):      573.637
                          System time (sec):       10.504
                         Elapsed time (sec):      595.818
  
                   Maximum memory used (kb):      559572.
                   Average memory used (kb):          N/A
  
                          Minor page faults:       247787
                          Major page faults:           21
                 Voluntary context switches:        13386
