unknown system                          
           1
     1.592152   -2.757688    0.000000
     1.592152    2.757688    0.000000
     0.000000    0.000000   19.446295
   Mo   S 
     3     6
Direct configuration=     1
   0.66666667  0.33333333  0.33310854
   0.33333333  0.66666667  0.66644188
   0.00000000  0.00000000  0.99977521
   0.33333333  0.66666667  0.08002471
   0.00000000  0.00000000  0.25286775
   0.00000000  0.00000000  0.41335804
   0.66666667  0.33333333  0.58620108
   0.66666667  0.33333333  0.74669137
   0.33333333  0.66666667  0.91953442
